16
Properties=species:S:1:pos:R:3:orca_vtscf_forces:R:3 r_cc1=1.315 r_ccOther=1.279 r_ch=1.086 theta=149.355 phi=0.0 orca_vtscf_energy=-12498.446684636108 pbc="F F F"
C        0.00000000       0.00000000       0.00000000       0.55568383      -0.00000627      -0.00000150
C        1.31500000       0.00000000       0.00000000       0.11889038       0.00000051       0.00000344
C        2.59400000       0.00000000       0.00000000      -0.55169123      -0.00000159      -0.00000234
C        3.87300000       0.00000000       0.00000000       0.39842572       0.00000036      -0.00000185
C        5.15200000       0.00000000       0.00000000      -0.24720578      -0.00000581       0.00000378
C        6.43100000       0.00000000       0.00000000       0.21127269       0.00000961       0.00000132
C        7.71000000       0.00000000       0.00000000      -0.21126523      -0.00000084       0.00000028
C        8.98900000       0.00000000       0.00000000       0.24721812      -0.00000273      -0.00000222
C       10.26800000       0.00000000       0.00000000      -0.39844112      -0.00001052       0.00000089
C       11.54700000       0.00000000       0.00000000       0.55169913       0.00001031      -0.00000164
C       12.82600000       0.00000000       0.00000000      -0.11888044       0.00000169       0.00000450
C       14.14100000       0.00000000       0.00000000      -0.55570853       0.00001004      -0.00000689
H       -0.55355297       0.93433137       0.00000000       0.00925483      -0.07971638       0.00000163
H       -0.55355297      -0.93433137      -0.00000000       0.00925628       0.07972018       0.00000052
H       14.69455297       0.93433137       0.00000000      -0.00925710      -0.07972533       0.00000040
H       14.69455297      -0.93433137       0.00000000      -0.00925544       0.07971445      -0.00000055
16
Properties=species:S:1:pos:R:3:orca_vtscf_forces:R:3 r_cc1=1.315 r_ccOther=1.279 r_ch=1.086 theta=149.355 phi=4.0 orca_vtscf_energy=-12498.444770137085 pbc="F F F"
C        0.00000000       0.00000000       0.00000000       0.55244039       0.00000172      -0.00000257
C        1.31500000       0.00000000       0.00000000       0.11933390      -0.00000064       0.00000538
C        2.59400000       0.00000000       0.00000000      -0.55184113       0.00000039      -0.00000265
C        3.87300000       0.00000000       0.00000000       0.39856774      -0.00000067      -0.00000243
C        5.15200000       0.00000000       0.00000000      -0.24728781      -0.00000494       0.00000287
C        6.43100000       0.00000000       0.00000000       0.21137905       0.00000834       0.00000281
C        7.71000000       0.00000000       0.00000000      -0.21136942      -0.00000087       0.00000003
C        8.98900000       0.00000000       0.00000000       0.24728219      -0.00000263      -0.00000190
C       10.26800000       0.00000000       0.00000000      -0.39853559      -0.00000897       0.00000091
C       11.54700000       0.00000000       0.00000000       0.55180774       0.00001003      -0.00000232
C       12.82600000       0.00000000       0.00000000      -0.11903067       0.00000111       0.00000518
C       14.14100000       0.00000000       0.00000000      -0.55543418       0.00000984      -0.00000694
H       -0.55355297       0.93205539       0.06517566       0.01080072      -0.07727449      -0.03390363
H       -0.55355297      -0.93205539      -0.06517566       0.01080126       0.07727825       0.03390577
H       14.69455297       0.93433137       0.00000000      -0.00922556      -0.07971102       0.02590011
H       14.69455297      -0.93433137       0.00000000      -0.00922385       0.07970050      -0.02590034
16
Properties=species:S:1:pos:R:3:orca_vtscf_forces:R:3 r_cc1=1.315 r_ccOther=1.279 r_ch=1.086 theta=149.355 phi=8.0 orca_vtscf_energy=-12498.439313352728 pbc="F F F"
C        0.00000000       0.00000000       0.00000000       0.54947386       0.00000409      -0.00000089
C        1.31500000       0.00000000       0.00000000       0.12024723      -0.00000300       0.00000176
C        2.59400000       0.00000000       0.00000000      -0.55218708       0.00000178      -0.00000022
C        3.87300000       0.00000000       0.00000000       0.39889461      -0.00000184      -0.00000059
C        5.15200000       0.00000000       0.00000000      -0.24760798      -0.00000297       0.00000118
C        6.43100000       0.00000000       0.00000000       0.21163739       0.00000610       0.00000279
C        7.71000000       0.00000000       0.00000000      -0.21162563      -0.00000064       0.00000016
C        8.98900000       0.00000000       0.00000000       0.24759384      -0.00000213      -0.00000199
C       10.26800000       0.00000000       0.00000000      -0.39882078      -0.00000655       0.00000078
C       11.54700000       0.00000000       0.00000000       0.55215669       0.00000816      -0.00000086
C       12.82600000       0.00000000       0.00000000      -0.11950296      -0.00000009       0.00000380
C       14.14100000       0.00000000       0.00000000      -0.55462881       0.00000871      -0.00000648
H       -0.55355297       0.92523852       0.13003379       0.01199740      -0.07128335      -0.06392452
H       -0.55355297      -0.92523852      -0.13003379       0.01199814       0.07128354       0.06392557
H       14.69455297       0.93433137       0.00000000      -0.00913616      -0.07967601       0.05179150
H       14.69455297      -0.93433137       0.00000000      -0.00913466       0.07966747      -0.05179173
16
Properties=species:S:1:pos:R:3:orca_vtscf_forces:R:3 r_cc1=1.315 r_ccOther=1.279 r_ch=1.086 theta=149.355 phi=12.0 orca_vtscf_energy=-12498.430751766915 pbc="F F F"
C        0.00000000       0.00000000       0.00000000       0.55241524       0.00000348      -0.00000389
C        1.31500000       0.00000000       0.00000000       0.12109022      -0.00000520       0.00000498
C        2.59400000       0.00000000       0.00000000      -0.55272510       0.00000227      -0.00000229
C        3.87300000       0.00000000       0.00000000       0.39940269      -0.00000077      -0.00000279
C        5.15200000       0.00000000       0.00000000      -0.24806914      -0.00000441       0.00000208
C        6.43100000       0.00000000       0.00000000       0.21208187       0.00000574       0.00000410
C        7.71000000       0.00000000       0.00000000      -0.21207513      -0.00000163      -0.00000045
C        8.98900000       0.00000000       0.00000000       0.24806220      -0.00000006      -0.00000181
C       10.26800000       0.00000000       0.00000000      -0.39931177      -0.00000518       0.00000114
C       11.54700000       0.00000000       0.00000000       0.55273954       0.00000610      -0.00000254
C       12.82600000       0.00000000       0.00000000      -0.12027819      -0.00000099       0.00000511
C       14.14100000       0.00000000       0.00000000      -0.55328025       0.00000600      -0.00000634
H       -0.55355297       0.91391399       0.19425841       0.00978271      -0.06296444      -0.09107430
H       -0.55355297      -0.91391399      -0.19425841       0.00978392       0.06296432       0.09107366
H       14.69455297       0.93433137       0.00000000      -0.00898573      -0.07961364       0.07764057
H       14.69455297      -0.93433137       0.00000000      -0.00898464       0.07960882      -0.07764091
16
Properties=species:S:1:pos:R:3:orca_vtscf_forces:R:3 r_cc1=1.315 r_ccOther=1.279 r_ch=1.086 theta=149.355 phi=16.0 orca_vtscf_energy=-12498.419126107712 pbc="F F F"
C        0.00000000       0.00000000       0.00000000       0.55407656      -0.00000757       0.00000017
C        1.31500000       0.00000000       0.00000000       0.12188663      -0.00000190      -0.00000158
C        2.59400000       0.00000000       0.00000000      -0.55348032       0.00000140       0.00000000
C        3.87300000       0.00000000       0.00000000       0.40007842       0.00000161       0.00000219
C        5.15200000       0.00000000       0.00000000      -0.24870093      -0.00000481      -0.00000120
C        6.43100000       0.00000000       0.00000000       0.21270205       0.00000554       0.00000366
C        7.71000000       0.00000000       0.00000000      -0.21270331      -0.00000283      -0.00000094
C        8.98900000       0.00000000       0.00000000       0.24870980       0.00000301      -0.00000118
C       10.26800000       0.00000000       0.00000000      -0.39999211      -0.00000513       0.00000044
C       11.54700000       0.00000000       0.00000000       0.55355116       0.00000437       0.00000035
C       12.82600000       0.00000000       0.00000000      -0.12136579      -0.00000191       0.00000213
C       14.14100000       0.00000000       0.00000000      -0.55138952       0.00000349      -0.00000556
H       -0.55355297       0.89813696       0.25753663       0.00747807      -0.04969874      -0.11953034
H       -0.55355297      -0.89813696      -0.25753663       0.00747830       0.04970234       0.11953019
H       14.69455297       0.93433137       0.00000000      -0.00877536      -0.07952776       0.10345067
H       14.69455297      -0.93433137       0.00000000      -0.00877466       0.07952639      -0.10345090
16
Properties=species:S:1:pos:R:3:orca_vtscf_forces:R:3 r_cc1=1.315 r_ccOther=1.279 r_ch=1.086 theta=149.355 phi=20.0 orca_vtscf_energy=-12498.403926543138 pbc="F F F"
C        0.00000000       0.00000000       0.00000000       0.54701203       0.00000067       0.00000333
C        1.31500000       0.00000000       0.00000000       0.12298489      -0.00000395       0.00000058
C        2.59400000       0.00000000       0.00000000      -0.55451551       0.00000273      -0.00000226
C        3.87300000       0.00000000       0.00000000       0.40096569       0.00000122       0.00000165
C        5.15200000       0.00000000       0.00000000      -0.24951569      -0.00000419      -0.00000075
C        6.43100000       0.00000000       0.00000000       0.21351251       0.00000342       0.00000423
C        7.71000000       0.00000000       0.00000000      -0.21352004      -0.00000436      -0.00000199
C        8.98900000       0.00000000       0.00000000       0.24953346       0.00000513      -0.00000007
C       10.26800000       0.00000000       0.00000000      -0.40088483      -0.00000183       0.00000006
C       11.54700000       0.00000000       0.00000000       0.55459711       0.00000132      -0.00000034
C       12.82600000       0.00000000       0.00000000      -0.12275534      -0.00000343       0.00000214
C       14.14100000       0.00000000       0.00000000      -0.54895372       0.00000207      -0.00000525
H       -0.55355297       0.87798429       0.31956015       0.00887004      -0.02993034      -0.14921207
H       -0.55355297      -0.87798429      -0.31956015       0.00886960       0.02992848       0.14920932
H       14.69455297       0.93433137       0.00000000      -0.00850641      -0.07941827       0.12925619
H       14.69455297      -0.93433137       0.00000000      -0.00850587       0.07941915      -0.12925647
16
Properties=species:S:1:pos:R:3:orca_vtscf_forces:R:3 r_cc1=1.315 r_ccOther=1.279 r_ch=1.086 theta=149.355 phi=24.0 orca_vtscf_energy=-12498.385220414952 pbc="F F F"
C        0.00000000       0.00000000       0.00000000       0.53517073       0.00000360       0.00000567
C        1.31500000       0.00000000       0.00000000       0.12470149      -0.00000440      -0.00000027
C        2.59400000       0.00000000       0.00000000      -0.55586843       0.00000328      -0.00000190
C        3.87300000       0.00000000       0.00000000       0.40206089       0.00000191       0.00000184
C        5.15200000       0.00000000       0.00000000      -0.25054857      -0.00000399      -0.00000070
C        6.43100000       0.00000000       0.00000000       0.21452698       0.00000265       0.00000432
C        7.71000000       0.00000000       0.00000000      -0.21453617      -0.00000521      -0.00000264
C        8.98900000       0.00000000       0.00000000       0.25056581       0.00000670       0.00000081
C       10.26800000       0.00000000       0.00000000      -0.40197877      -0.00000091      -0.00000016
C       11.54700000       0.00000000       0.00000000       0.55588570       0.00000074       0.00000124
C       12.82600000       0.00000000       0.00000000      -0.12447105      -0.00000413       0.00000179
C       14.14100000       0.00000000       0.00000000      -0.54597930       0.00000084      -0.00000490
H       -0.55355297       0.85355418       0.38002680       0.01244743      -0.00776238      -0.17289906
H       -0.55355297      -0.85355418      -0.38002680       0.01244655       0.00775902       0.17289535
H       14.69455297       0.93433137       0.00000000      -0.00817665      -0.07928348       0.15510843
H       14.69455297      -0.93433137       0.00000000      -0.00817629       0.07928618      -0.15510874
16
Properties=species:S:1:pos:R:3:orca_vtscf_forces:R:3 r_cc1=1.315 r_ccOther=1.279 r_ch=1.086 theta=149.355 phi=28.0 orca_vtscf_energy=-12498.363539651487 pbc="F F F"
C        0.00000000       0.00000000       0.00000000       0.52621669       0.00000192       0.00000430
C        1.31500000       0.00000000       0.00000000       0.12717244      -0.00000425      -0.00000034
C        2.59400000       0.00000000       0.00000000      -0.55745885       0.00000037      -0.00000282
C        3.87300000       0.00000000       0.00000000       0.40332138       0.00000348       0.00000274
C        5.15200000       0.00000000       0.00000000      -0.25179806      -0.00000248      -0.00000068
C        6.43100000       0.00000000       0.00000000       0.21571788       0.00000225       0.00000464
C        7.71000000       0.00000000       0.00000000      -0.21572543      -0.00000595      -0.00000394
C        8.98900000       0.00000000       0.00000000       0.25181810       0.00000745       0.00000035
C       10.26800000       0.00000000       0.00000000      -0.40326299      -0.00000066       0.00000045
C       11.54700000       0.00000000       0.00000000       0.55742851       0.00000040       0.00000056
C       12.82600000       0.00000000       0.00000000      -0.12653660      -0.00000387       0.00000501
C       14.14100000       0.00000000       0.00000000      -0.54245825       0.00000080      -0.00000684
H       -0.55355297       0.82496563       0.43864201       0.01473339       0.01632055      -0.19284957
H       -0.55355297      -0.82496563      -0.43864201       0.01473373      -0.01631975       0.19284805
H       14.69455297       0.93433137       0.00000000      -0.00778797      -0.07912710       0.18095946
H       14.69455297      -0.93433137       0.00000000      -0.00778765       0.07912992      -0.18095998
16
Properties=species:S:1:pos:R:3:orca_vtscf_forces:R:3 r_cc1=1.315 r_ccOther=1.279 r_ch=1.086 theta=149.355 phi=32.0 orca_vtscf_energy=-12498.338580043903 pbc="F F F"
C        0.00000000       0.00000000       0.00000000       0.52356996       0.00000168       0.00000429
C        1.31500000       0.00000000       0.00000000       0.13022981      -0.00000258      -0.00000095
C        2.59400000       0.00000000       0.00000000      -0.55932257      -0.00000068      -0.00000137
C        3.87300000       0.00000000       0.00000000       0.40486445       0.00000343       0.00000158
C        5.15200000       0.00000000       0.00000000      -0.25325141      -0.00000291       0.00000051
C        6.43100000       0.00000000       0.00000000       0.21713225       0.00000246       0.00000308
C        7.71000000       0.00000000       0.00000000      -0.21713416      -0.00000662      -0.00000320
C        8.98900000       0.00000000       0.00000000       0.25324804       0.00000792       0.00000141
C       10.26800000       0.00000000       0.00000000      -0.40476382      -0.00000088      -0.00000008
C       11.54700000       0.00000000       0.00000000       0.55920087       0.00000140       0.00000024
C       12.82600000       0.00000000       0.00000000      -0.12888969      -0.00000424       0.00000105
C       14.14100000       0.00000000       0.00000000      -0.53839541       0.00000061      -0.00000459
H       -0.55355297       0.79235794       0.49512019       0.01392254       0.04500268      -0.21525347
H       -0.55355297      -0.79235794      -0.49512019       0.01392227      -0.04500230       0.21525207
H       14.69455297       0.93433137       0.00000000      -0.00734168      -0.07894652       0.20672878
H       14.69455297      -0.93433137       0.00000000      -0.00734133       0.07894944      -0.20672913
16
Properties=species:S:1:pos:R:3:orca_vtscf_forces:R:3 r_cc1=1.315 r_ccOther=1.279 r_ch=1.086 theta=149.355 phi=36.0 orca_vtscf_energy=-12498.309825153558 pbc="F F F"
C        0.00000000       0.00000000       0.00000000       0.52821865       0.00000271       0.00000429
C        1.31500000       0.00000000       0.00000000       0.13334580      -0.00000110      -0.00000154
C        2.59400000       0.00000000       0.00000000      -0.56135682      -0.00000014       0.00000073
C        3.87300000       0.00000000       0.00000000       0.40657433       0.00000222       0.00000300
C        5.15200000       0.00000000       0.00000000      -0.25489521      -0.00000215      -0.00000100
C        6.43100000       0.00000000       0.00000000       0.21873720       0.00000257       0.00000184
C        7.71000000       0.00000000       0.00000000      -0.21873718      -0.00000607      -0.00000260
C        8.98900000       0.00000000       0.00000000       0.25488033       0.00000777       0.00000183
C       10.26800000       0.00000000       0.00000000      -0.40647766      -0.00000206      -0.00000081
C       11.54700000       0.00000000       0.00000000       0.56121621       0.00000172       0.00000213
C       12.82600000       0.00000000       0.00000000      -0.13155961      -0.00000374      -0.00000087
C       14.14100000       0.00000000       0.00000000      -0.53380212       0.00000078      -0.00000399
H       -0.55355297       0.75588996       0.54918620       0.00923481       0.07455853      -0.23552027
H       -0.55355297      -0.75588996      -0.54918620       0.00923366      -0.07455922       0.23551868
H       14.69455297       0.93433137       0.00000000      -0.00683938      -0.07874229       0.23245499
H       14.69455297      -0.93433137       0.00000000      -0.00683893       0.07874481      -0.23245527
16
Properties=species:S:1:pos:R:3:orca_vtscf_forces:R:3 r_cc1=1.315 r_ccOther=1.279 r_ch=1.086 theta=149.355 phi=40.0 orca_vtscf_energy=-12498.277825896326 pbc="F F F"
C        0.00000000       0.00000000       0.00000000       0.53474323       0.00000101       0.00000025
C        1.31500000       0.00000000       0.00000000       0.13635598       0.00000095       0.00000077
C        2.59400000       0.00000000       0.00000000      -0.56359260      -0.00000139       0.00000043
C        3.87300000       0.00000000       0.00000000       0.40847545       0.00000365       0.00000340
C        5.15200000       0.00000000       0.00000000      -0.25671723      -0.00000227      -0.00000096
C        6.43100000       0.00000000       0.00000000       0.22054801       0.00000294       0.00000230
C        7.71000000       0.00000000       0.00000000      -0.22054774      -0.00000621      -0.00000316
C        8.98900000       0.00000000       0.00000000       0.25670919       0.00000736       0.00000175
C       10.26800000       0.00000000       0.00000000      -0.40840982      -0.00000257      -0.00000068
C       11.54700000       0.00000000       0.00000000       0.56349173       0.00000271       0.00000222
C       12.82600000       0.00000000       0.00000000      -0.13454522      -0.00000342      -0.00000047
C       14.14100000       0.00000000       0.00000000      -0.52865717       0.00000123      -0.00000410
H       -0.55355297       0.71573935       0.60057663       0.00314244       0.10260656      -0.24889395
H       -0.55355297      -0.71573935      -0.60057663       0.00314076      -0.10260626       0.24889387
H       14.69455297       0.93433137       0.00000000      -0.00628032      -0.07851566       0.25820029
H       14.69455297      -0.93433137       0.00000000      -0.00627977       0.07851744      -0.25820064
16
Properties=species:S:1:pos:R:3:orca_vtscf_forces:R:3 r_cc1=1.315 r_ccOther=1.279 r_ch=1.086 theta=149.355 phi=44.0 orca_vtscf_energy=-12498.242752839567 pbc="F F F"
C        0.00000000       0.00000000       0.00000000       0.53564301       0.00000752       0.00000815
C        1.31500000       0.00000000       0.00000000       0.13955327      -0.00000177      -0.00000142
C        2.59400000       0.00000000       0.00000000      -0.56607843       0.00000013      -0.00000059
C        3.87300000       0.00000000       0.00000000       0.41059593       0.00000101       0.00000099
C        5.15200000       0.00000000       0.00000000      -0.25875955      -0.00000098       0.00000007
C        6.43100000       0.00000000       0.00000000       0.22256345       0.00000170       0.00000176
C        7.71000000       0.00000000       0.00000000      -0.22256509      -0.00000469      -0.00000228
C        8.98900000       0.00000000       0.00000000       0.25876306       0.00000617       0.00000134
C       10.26800000       0.00000000       0.00000000      -0.41055968      -0.00000177       0.00000020
C       11.54700000       0.00000000       0.00000000       0.56601423       0.00000252       0.00000175
C       12.82600000       0.00000000       0.00000000      -0.13787132      -0.00000343      -0.00000051
C       14.14100000       0.00000000       0.00000000      -0.52295226       0.00000137      -0.00000391
H       -0.55355297       0.67210174       0.64904111      -0.00063650       0.13642601      -0.26110431
H       -0.55355297      -0.67210174      -0.64904111      -0.00063825      -0.13642935       0.26110278
H       14.69455297       0.93433137       0.00000000      -0.00566452      -0.07826593       0.28392370
H       14.69455297      -0.93433137       0.00000000      -0.00566397       0.07826763      -0.28392407
16
Properties=species:S:1:pos:R:3:orca_vtscf_forces:R:3 r_cc1=1.315 r_ccOther=1.279 r_ch=1.086 theta=149.355 phi=48.0 orca_vtscf_energy=-12498.203973145684 pbc="F F F"
C        0.00000000       0.00000000       0.00000000       0.52725268       0.00000205       0.00000209
C        1.31500000       0.00000000       0.00000000       0.14317103      -0.00000007      -0.00000027
C        2.59400000       0.00000000       0.00000000      -0.56886270      -0.00000069       0.00000073
C        3.87300000       0.00000000       0.00000000       0.41297572       0.00000304       0.00000158
C        5.15200000       0.00000000       0.00000000      -0.26103824      -0.00000210      -0.00000060
C        6.43100000       0.00000000       0.00000000       0.22481453       0.00000257       0.00000232
C        7.71000000       0.00000000       0.00000000      -0.22481560      -0.00000559      -0.00000327
C        8.98900000       0.00000000       0.00000000       0.26104650       0.00000650       0.00000234
C       10.26800000       0.00000000       0.00000000      -0.41293991      -0.00000218      -0.00000054
C       11.54700000       0.00000000       0.00000000       0.56879071       0.00000265       0.00000183
C       12.82600000       0.00000000       0.00000000      -0.14151822      -0.00000342      -0.00000085
C       14.14100000       0.00000000       0.00000000      -0.51670927       0.00000141      -0.00000361
H       -0.55355297       0.62518972       0.69434352      -0.00021866       0.17647493      -0.26954865
H       -0.55355297      -0.62518972      -0.69434352      -0.00021997      -0.17647730       0.26954777
H       14.69455297       0.93433137       0.00000000      -0.00499452      -0.07799310       0.30959194
H       14.69455297      -0.93433137       0.00000000      -0.00499396       0.07799477      -0.30959235
16
Properties=species:S:1:pos:R:3:orca_vtscf_forces:R:3 r_cc1=1.315 r_ccOther=1.279 r_ch=1.086 theta=149.355 phi=52.0 orca_vtscf_energy=-12498.161755079622 pbc="F F F"
C        0.00000000       0.00000000       0.00000000       0.51045951       0.00000249       0.00000267
C        1.31500000       0.00000000       0.00000000       0.14716694      -0.00000256      -0.00000180
C        2.59400000       0.00000000       0.00000000      -0.57193670      -0.00000141       0.00000138
C        3.87300000       0.00000000       0.00000000       0.41561538       0.00000260       0.00000134
C        5.15200000       0.00000000       0.00000000      -0.26355833      -0.00000203      -0.00000071
C        6.43100000       0.00000000       0.00000000       0.22730517       0.00000238       0.00000234
C        7.71000000       0.00000000       0.00000000      -0.22730809      -0.00000527      -0.00000306
C        8.98900000       0.00000000       0.00000000       0.26357087       0.00000700       0.00000223
C       10.26800000       0.00000000       0.00000000      -0.41556033      -0.00000177      -0.00000025
C       11.54700000       0.00000000       0.00000000       0.57183210       0.00000207       0.00000177
C       12.82600000       0.00000000       0.00000000      -0.14549717      -0.00000361      -0.00000130
C       14.14100000       0.00000000       0.00000000      -0.50991496       0.00000106      -0.00000320
H       -0.55355297       0.57523183       0.73626317       0.00390833       0.21497549      -0.26799085
H       -0.55355297      -0.57523183      -0.73626317       0.00390622      -0.21497792       0.26798996
H       14.69455297       0.93433137       0.00000000      -0.00427045      -0.07769746       0.33522829
H       14.69455297      -0.93433137       0.00000000      -0.00426996       0.07769971      -0.33522874
16
Properties=species:S:1:pos:R:3:orca_vtscf_forces:R:3 r_cc1=1.315 r_ccOther=1.279 r_ch=1.086 theta=149.355 phi=56.0 orca_vtscf_energy=-12498.116646178412 pbc="F F F"
C        0.00000000       0.00000000       0.00000000       0.49110801      -0.00000118      -0.00000067
C        1.31500000       0.00000000       0.00000000       0.15129387       0.00000045      -0.00000267
C        2.59400000       0.00000000       0.00000000      -0.57525203      -0.00000197       0.00000207
C        3.87300000       0.00000000       0.00000000       0.41848257       0.00000377       0.00000166
C        5.15200000       0.00000000       0.00000000      -0.26630952      -0.00000244      -0.00000079
C        6.43100000       0.00000000       0.00000000       0.23003015       0.00000223       0.00000210
C        7.71000000       0.00000000       0.00000000      -0.23003155      -0.00000559      -0.00000283
C        8.98900000       0.00000000       0.00000000       0.26632513       0.00000696       0.00000311
C       10.26800000       0.00000000       0.00000000      -0.41841218      -0.00000095      -0.00000108
C       11.54700000       0.00000000       0.00000000       0.57513736       0.00000133       0.00000177
C       12.82600000       0.00000000       0.00000000      -0.14981250      -0.00000377      -0.00000250
C       14.14100000       0.00000000       0.00000000      -0.50256191       0.00000090      -0.00000241
H       -0.55355297       0.52247147       0.77459581       0.00875872       0.25452171      -0.26210659
H       -0.55355297      -0.52247147      -0.77459581       0.00875615      -0.25452292       0.26210690
H       14.69455297       0.93433137       0.00000000      -0.00349418      -0.07738138       0.36079844
H       14.69455297      -0.93433137       0.00000000      -0.00349371       0.07738400      -0.36079887
16
Properties=species:S:1:pos:R:3:orca_vtscf_forces:R:3 r_cc1=1.315 r_ccOther=1.279 r_ch=1.086 theta=149.355 phi=60.0 orca_vtscf_energy=-12498.068029668782 pbc="F F F"
C        0.00000000       0.00000000       0.00000000       0.47726737      -0.00000018       0.00000180
C        1.31500000       0.00000000       0.00000000       0.15541939      -0.00000037      -0.00000280
C        2.59400000       0.00000000       0.00000000      -0.57876055      -0.00000279       0.00000124
C        3.87300000       0.00000000       0.00000000       0.42157359       0.00000520       0.00000158
C        5.15200000       0.00000000       0.00000000      -0.26931241      -0.00000348      -0.00000044
C        6.43100000       0.00000000       0.00000000       0.23299106       0.00000281       0.00000281
C        7.71000000       0.00000000       0.00000000      -0.23299562      -0.00000587      -0.00000414
C        8.98900000       0.00000000       0.00000000       0.26934342       0.00000742       0.00000381
C       10.26800000       0.00000000       0.00000000      -0.42151234      -0.00000093      -0.00000091
C       11.54700000       0.00000000       0.00000000       0.57869601      -0.00000013       0.00000243
C       12.82600000       0.00000000       0.00000000      -0.15447015      -0.00000404      -0.00000242
C       14.14100000       0.00000000       0.00000000      -0.49465801       0.00000064      -0.00000247
H       -0.55355297       0.46716569       0.80915470       0.01044359       0.29878939      -0.25723023
H       -0.55355297      -0.46716569      -0.80915470       0.01044372      -0.29878992       0.25722942
H       14.69455297       0.93433137       0.00000000      -0.00266788      -0.07704324       0.38629308
H       14.69455297      -0.93433137       0.00000000      -0.00266752       0.07704632      -0.38629360
16
Properties=species:S:1:pos:R:3:orca_vtscf_forces:R:3 r_cc1=1.315 r_ccOther=1.279 r_ch=1.086 theta=149.355 phi=64.0 orca_vtscf_energy=-12498.015656072772 pbc="F F F"
C        0.00000000       0.00000000       0.00000000       0.47143411       0.00000019       0.00000275
C        1.31500000       0.00000000       0.00000000       0.15988533      -0.00000109      -0.00000390