7
Properties=species:S:1:pos:R:3:orca_vtscf_forces:R:3 orca_vtscf_energy=-3171.975807094592 pbc="F F F"
C        0.00000000       0.00000000       0.00000000      -0.07665732       0.00001218      -0.00000495
C        1.31500000       0.00000000       0.00000000       0.00081070      -0.00000239      -0.00000103
C        2.63000000       0.00000000       0.00000000       0.07027864       0.00000507      -0.00000629
H       -0.55355297       0.93077596       0.08143234      -0.01624677      -0.17709894       1.50648073
H       -0.55355297      -0.93077596      -0.08143234      -0.01624262       0.17708721      -1.50646912
H        3.18355297       0.93433137       0.00000000       0.01945759      -0.04602264      -1.51850555
H        3.18355297      -0.93433137       0.00000000       0.01945780       0.04602108       1.51850441
8
Properties=species:S:1:pos:R:3:orca_vtscf_forces:R:3 orca_vtscf_energy=-4210.396541787553 pbc="F F F"
C        0.00000000       0.00000000       0.00000000       0.48312466      -0.00000232       0.00000387
C        1.31500000       0.00000000       0.00000000       0.44043158      -0.00000200      -0.00000563
C        2.59400000       0.00000000       0.00000000      -0.44012463       0.00000370       0.00000007
C        3.90900000       0.00000000       0.00000000      -0.48704095      -0.00000704       0.00000976
H       -0.55355297       0.93077596       0.08143234      -0.00306040      -0.08939900      -0.10168073
H       -0.55355297      -0.93077596      -0.08143234      -0.00305899       0.08939856       0.10168302
H        4.46255297       0.93433137       0.00000000       0.00509880      -0.09818304       0.09085775
H        4.46255297      -0.93433137       0.00000000       0.00509839       0.09818646      -0.09086399
9
Properties=species:S:1:pos:R:3:orca_vtscf_forces:R:3 orca_vtscf_energy=-5244.754073012674 pbc="F F F"
C        0.00000000       0.00000000       0.00000000       0.12879537      -0.00000028       0.00000413
C        1.31500000       0.00000000       0.00000000      -0.08054688      -0.00000891       0.00000060
C        2.59400000       0.00000000       0.00000000      -0.00004125       0.00000652      -0.00000037
C        3.87300000       0.00000000       0.00000000       0.08125468      -0.00000925       0.00000369
C        5.18800000       0.00000000       0.00000000      -0.13511200       0.00000660      -0.00001007
H       -0.55355297       0.93077596       0.08143234       0.00665774      -0.16571857       1.08038269
H       -0.55355297      -0.93077596      -0.08143234       0.00666366       0.16572289      -1.08038384
H        5.74155297       0.93433137       0.00000000      -0.00344921      -0.07160385      -1.09337797
H        5.74155297      -0.93433137       0.00000000      -0.00345134       0.07160176       1.09338352
10
Properties=species:S:1:pos:R:3:orca_vtscf_forces:R:3 orca_vtscf_energy=-6282.361246001786 pbc="F F F"
C        0.00000000       0.00000000       0.00000000       0.52695020       0.00000642      -0.00000055
C        1.31500000       0.00000000       0.00000000       0.23536057      -0.00000603       0.00000194
C        2.59400000       0.00000000       0.00000000      -0.84116385       0.00000399      -0.00000098
C        3.87300000       0.00000000       0.00000000       0.84113991      -0.00000438       0.00000207
C        5.15200000       0.00000000       0.00000000      -0.23495596       0.00000589      -0.00000104
C        6.46700000       0.00000000       0.00000000      -0.53096251      -0.00000882       0.00000086
H       -0.55355297       0.93077596       0.08143234       0.00265195      -0.07992848      -0.07252835
H       -0.55355297      -0.93077596      -0.08143234       0.00265303       0.07992750       0.07252813
H        7.02055297       0.93433137       0.00000000      -0.00056567      -0.08623721       0.06265649
H        7.02055297      -0.93433137       0.00000000      -0.00056343       0.08624019      -0.06265573
11
Properties=species:S:1:pos:R:3:orca_vtscf_forces:R:3 orca_vtscf_energy=-7317.157594860157 pbc="F F F"
C        0.00000000       0.00000000       0.00000000       0.28126451       0.00000175       0.00000046
C        1.31500000       0.00000000       0.00000000       0.08916081      -0.00000147      -0.00000233
C        2.59400000       0.00000000       0.00000000      -0.37143358       0.00000126       0.00000562
C        3.87300000       0.00000000       0.00000000       0.00008882       0.00000046      -0.00000468
C        5.15200000       0.00000000       0.00000000       0.37131002      -0.00000354       0.00000031
C        6.43100000       0.00000000       0.00000000      -0.08849964       0.00000182       0.00000409
C        7.74600000       0.00000000       0.00000000      -0.28728808      -0.00000317      -0.00001322
H       -0.55355297       0.93077596       0.08143234       0.00767858      -0.14783912       0.83432099
H       -0.55355297      -0.93077596      -0.08143234       0.00768476       0.14784233      -0.83432183
H        8.29955297       0.93433137       0.00000000      -0.00461633      -0.07517674      -0.84678424
H        8.29955297      -0.93433137       0.00000000      -0.00461758       0.07517663       0.84679307
12
Properties=species:S:1:pos:R:3:orca_vtscf_forces:R:3 orca_vtscf_energy=-8354.374572583336 pbc="F F F"
C        0.00000000       0.00000000       0.00000000       0.53824942      -0.00000139       0.00000487
C        1.31500000       0.00000000       0.00000000       0.16546382       0.00001531      -0.00000094
C        2.59400000       0.00000000       0.00000000      -0.63857564      -0.00001176       0.00000352
C        3.87300000       0.00000000       0.00000000       0.53141117       0.00001191       0.00000182
C        5.15200000       0.00000000       0.00000000      -0.53137183      -0.00001746      -0.00000220
C        6.43100000       0.00000000       0.00000000       0.63849643       0.00001154       0.00000028
C        7.71000000       0.00000000       0.00000000      -0.16494486      -0.00000385      -0.00000085
C        9.02500000       0.00000000       0.00000000      -0.54236498       0.00000468      -0.00000204
H       -0.55355297       0.93077596       0.08143234       0.00653122      -0.07750970      -0.05743223
H       -0.55355297      -0.93077596      -0.08143234       0.00653110       0.07750680       0.05742835
H        9.57855297       0.93433137       0.00000000      -0.00441996      -0.08253032       0.04782013
H        9.57855297      -0.93433137       0.00000000      -0.00441916       0.08252635      -0.04782011
13
Properties=species:S:1:pos:R:3:orca_vtscf_forces:R:3 orca_vtscf_energy=-9389.423696658347 pbc="F F F"
C        0.00000000       0.00000000       0.00000000       0.37019667       0.00000121       0.00000518
C        1.31500000       0.00000000       0.00000000       0.11684364      -0.00000183      -0.00000952
C        2.59400000       0.00000000       0.00000000      -0.46339023       0.00001065       0.00000533
C        3.87300000       0.00000000       0.00000000       0.23144753      -0.00001204       0.00000005
C        5.15200000       0.00000000       0.00000000      -0.00005034       0.00000724      -0.00000181
C        6.43100000       0.00000000       0.00000000      -0.23135621      -0.00001416       0.00000402
C        7.71000000       0.00000000       0.00000000       0.46330679       0.00001633      -0.00000784
C        8.98900000       0.00000000       0.00000000      -0.11620333      -0.00001177       0.00001143
C       10.30400000       0.00000000       0.00000000      -0.37595639       0.00001733      -0.00000888
H       -0.55355297       0.93077596       0.08143234       0.00793546      -0.13478696       0.67547912
H       -0.55355297      -0.93077596      -0.08143234       0.00793248       0.13478327      -0.67548014
H       10.85755297       0.93433137       0.00000000      -0.00498569      -0.07596178      -0.68745340
H       10.85755297      -0.93433137       0.00000000      -0.00498370       0.07595124       0.68745326
14
Properties=species:S:1:pos:R:3:orca_vtscf_forces:R:3 orca_vtscf_energy=-10426.405323554585 pbc="F F F"
C        0.00000000       0.00000000       0.00000000       0.54536844       0.00000037      -0.00000174
C        1.31500000       0.00000000       0.00000000       0.13623140      -0.00000466       0.00000159
C        2.59400000       0.00000000       0.00000000      -0.57969147       0.00000862      -0.00000189
C        3.87300000       0.00000000       0.00000000       0.43621474      -0.00000942       0.00000538
C        5.15200000       0.00000000       0.00000000      -0.31048436       0.00000149      -0.00000306
C        6.43100000       0.00000000       0.00000000       0.31049265      -0.00000297      -0.00000162
C        7.71000000       0.00000000       0.00000000      -0.43617200       0.00000726       0.00000127
C        8.98900000       0.00000000       0.00000000       0.57963089      -0.00000409      -0.00000275
C       10.26800000       0.00000000       0.00000000      -0.13582044       0.00000037       0.00000242
C       11.58300000       0.00000000       0.00000000      -0.54938239      -0.00001259      -0.00000471
H       -0.55355297       0.93077596       0.08143234       0.00938639      -0.07651414      -0.04812523
H       -0.55355297      -0.93077596      -0.08143234       0.00938759       0.07651592       0.04812630
H       12.13655297       0.93433137       0.00000000      -0.00725521      -0.08073644       0.03863549
H       12.13655297      -0.93433137       0.00000000      -0.00725803       0.08074447      -0.03863648
15
Properties=species:S:1:pos:R:3:orca_vtscf_forces:R:3 orca_vtscf_energy=-11461.62070512662 pbc="F F F"
C        0.00000000       0.00000000       0.00000000       0.42480072       0.00000187      -0.00000232
C        1.31500000       0.00000000       0.00000000       0.12062329       0.00000007       0.00000730
C        2.59400000       0.00000000       0.00000000      -0.49374686      -0.00000069      -0.00000512
C        3.87300000       0.00000000       0.00000000       0.29440059      -0.00000135       0.00000582
C        5.15200000       0.00000000       0.00000000      -0.10109605      -0.00000379      -0.00001140
C        6.43100000       0.00000000       0.00000000       0.00004660       0.00000634       0.00001149
C        7.71000000       0.00000000       0.00000000       0.10104342       0.00000032      -0.00000234
C        8.98900000       0.00000000       0.00000000      -0.29432618      -0.00000085       0.00000285
C       10.26800000       0.00000000       0.00000000       0.49369737      -0.00000273      -0.00000799
C       11.54700000       0.00000000       0.00000000      -0.12008425      -0.00000139       0.00000440
C       12.86200000       0.00000000       0.00000000      -0.43030731      -0.00000206      -0.00000355
H       -0.55355297       0.93077596       0.08143234       0.00868462      -0.12532827       0.56489933
H       -0.55355297      -0.93077596      -0.08143234       0.00868743       0.12532815      -0.56489890
H       13.41555297       0.93433137       0.00000000      -0.00582802      -0.07613951      -0.57648064
H       13.41555297      -0.93433137       0.00000000      -0.00582841       0.07614090       0.57648004
16
Properties=species:S:1:pos:R:3:orca_vtscf_forces:R:3 orca_vtscf_energy=-12498.443718614406 pbc="F F F"
C        0.00000000       0.00000000       0.00000000       0.55126011       0.00000185      -0.00000112
C        1.31500000       0.00000000       0.00000000       0.11954932      -0.00000150       0.00000357
C        2.59400000       0.00000000       0.00000000      -0.55191180       0.00000132      -0.00000115
C        3.87300000       0.00000000       0.00000000       0.39862189      -0.00000209      -0.00000139
C        5.15200000       0.00000000       0.00000000      -0.24737144      -0.00000423       0.00000202
C        6.43100000       0.00000000       0.00000000       0.21141156       0.00000782       0.00000253
C        7.71000000       0.00000000       0.00000000      -0.21140129      -0.00000052       0.00000032
C        8.98900000       0.00000000       0.00000000       0.24736242      -0.00000280      -0.00000213
C       10.26800000       0.00000000       0.00000000      -0.39857507      -0.00000829       0.00000088
C       11.54700000       0.00000000       0.00000000       0.55187211       0.00000944      -0.00000185
C       12.82600000       0.00000000       0.00000000      -0.11912564       0.00000082       0.00000462
C       14.14100000       0.00000000       0.00000000      -0.55528662       0.00000967      -0.00000676
H       -0.55355297       0.93077596       0.08143234       0.01134990      -0.07602293      -0.04180709
H       -0.55355297      -0.93077596      -0.08143234       0.01135039       0.07602370       0.04180812
H       14.69455297       0.93433137       0.00000000      -0.00920982      -0.07970651       0.03238035
H       14.69455297      -0.93433137       0.00000000      -0.00920820       0.07969649      -0.03238059
17
Properties=species:S:1:pos:R:3:orca_vtscf_forces:R:3 orca_vtscf_energy=-13533.777330444047 pbc="F F F"
C        0.00000000       0.00000000       0.00000000       0.46084791       0.00000019      -0.00000014
C        1.31500000       0.00000000       0.00000000       0.11789465      -0.00000143       0.00000577
C        2.59400000       0.00000000       0.00000000      -0.50532387      -0.00000488      -0.00000617
C        3.87300000       0.00000000       0.00000000       0.32015714       0.00000824       0.00000431
C        5.15200000       0.00000000       0.00000000      -0.13790797      -0.00000341      -0.00000122
C        6.43100000       0.00000000       0.00000000       0.06317763       0.00000510       0.00000690
C        7.71000000       0.00000000       0.00000000      -0.00002938      -0.00000819      -0.00000585
C        8.98900000       0.00000000       0.00000000      -0.06311369       0.00000899       0.00000188
C       10.26800000       0.00000000       0.00000000       0.13787488      -0.00000676      -0.00000117
C       11.54700000       0.00000000       0.00000000      -0.32009162       0.00000524       0.00000081
C       12.82600000       0.00000000       0.00000000       0.50530065      -0.00000570       0.00000417
C       14.10500000       0.00000000       0.00000000      -0.11739000       0.00000520      -0.00000616
C       15.42000000       0.00000000       0.00000000      -0.46618781      -0.00000043      -0.00000564
H       -0.55355297       0.93077596       0.08143234       0.00963726      -0.11828807       0.48366404
H       -0.55355297      -0.93077596      -0.08143234       0.00963919       0.11828943      -0.48366442
H       15.97355297       0.93433137       0.00000000      -0.00685670      -0.07618262      -0.49493859
H       15.97355297      -0.93433137       0.00000000      -0.00685768       0.07618356       0.49494110
18
Properties=species:S:1:pos:R:3:orca_vtscf_forces:R:3 orca_vtscf_energy=-14570.485860966308 pbc="F F F"
C        0.00000000       0.00000000       0.00000000       0.55626669       0.00000602      -0.00000251
C        1.31500000       0.00000000       0.00000000       0.10817694       0.00000192       0.00000410
C        2.59400000       0.00000000       0.00000000      -0.53540179       0.00000361      -0.00000144
C        3.87300000       0.00000000       0.00000000       0.37885528      -0.00000476      -0.00000248
C        5.15200000       0.00000000       0.00000000      -0.21889396      -0.00000385       0.00000406
C        6.43100000       0.00000000       0.00000000       0.17321751       0.00000768       0.00000073
C        7.71000000       0.00000000       0.00000000      -0.14764330      -0.00000091       0.00000310
C        8.98900000       0.00000000       0.00000000       0.14763125       0.00000397      -0.00000420
C       10.26800000       0.00000000       0.00000000      -0.17319211      -0.00001068       0.00000234
C       11.54700000       0.00000000       0.00000000       0.21888071       0.00000707      -0.00000261
C       12.82600000       0.00000000       0.00000000      -0.37880453      -0.00000431       0.00000164
C       14.10500000       0.00000000       0.00000000       0.53536506       0.00000427       0.00000149
C       15.38400000       0.00000000       0.00000000      -0.10776674       0.00000340       0.00000013
C       16.69900000       0.00000000       0.00000000      -0.56028777       0.00000938      -0.00000555
H       -0.55355297       0.93077596       0.08143234       0.01279378      -0.07571091      -0.03722688
H       -0.55355297      -0.93077596      -0.08143234       0.01279388       0.07570661       0.03722726
H       17.25255297       0.93433137       0.00000000      -0.01064516      -0.07899763       0.02784409
H       17.25255297      -0.93433137       0.00000000      -0.01064285       0.07898938      -0.02784359
19
Properties=species:S:1:pos:R:3:orca_vtscf_forces:R:3 orca_vtscf_energy=-15605.90798069718 pbc="F F F"
C        0.00000000       0.00000000       0.00000000       0.48602864       0.00000630      -0.00000065
C        1.31500000       0.00000000       0.00000000       0.11303965       0.00000456      -0.00000060
C        2.59400000       0.00000000       0.00000000      -0.50938041       0.00000381       0.00000445
C        3.87300000       0.00000000       0.00000000       0.33229049      -0.00000782       0.00000130
C        5.15200000       0.00000000       0.00000000      -0.15468449      -0.00000117      -0.00000618
C        6.43100000       0.00000000       0.00000000       0.08952598       0.00000720       0.00000253
C        7.71000000       0.00000000       0.00000000      -0.03664836      -0.00000131       0.00000267
C        8.98900000       0.00000000       0.00000000       0.00001628       0.00000251       0.00000423
C       10.26800000       0.00000000       0.00000000       0.03661495      -0.00000403      -0.00000580
C       11.54700000       0.00000000       0.00000000      -0.08948239       0.00000362       0.00000243
C       12.82600000       0.00000000       0.00000000       0.15465950      -0.00000290      -0.00000292
C       14.10500000       0.00000000       0.00000000      -0.33222982       0.00000237       0.00000113
C       15.38400000       0.00000000       0.00000000       0.50935453      -0.00000080       0.00000301
C       16.66300000       0.00000000       0.00000000      -0.11255853       0.00000114       0.00000182
C       17.97800000       0.00000000       0.00000000      -0.49122188       0.00000199      -0.00000896
H       -0.55355297       0.93077596       0.08143234       0.01063760      -0.11289563       0.42178009
H       -0.55355297      -0.93077596      -0.08143234       0.01063915       0.11289101      -0.42178064
H       18.53155297       0.93433137       0.00000000      -0.00791903      -0.07618454      -0.43281885
H       18.53155297      -0.93433137       0.00000000      -0.00791866       0.07618368       0.43282018
20
Properties=species:S:1:pos:R:3:orca_vtscf_forces:R:3 orca_vtscf_energy=-16642.529951367622 pbc="F F F"
C        0.00000000       0.00000000       0.00000000       0.56058360       0.00000809      -0.00000215
C        1.31500000       0.00000000       0.00000000       0.09980664       0.00000215      -0.00000403
C        2.59400000       0.00000000       0.00000000      -0.52435340       0.00000037       0.00000584
C        3.87300000       0.00000000       0.00000000       0.36650627      -0.00000043       0.00000117
C        5.15200000       0.00000000       0.00000000      -0.20282317      -0.00000036      -0.00000038
C        6.43100000       0.00000000       0.00000000       0.15389734       0.00000154      -0.00000461
C        7.71000000       0.00000000       0.00000000      -0.11953121      -0.00000323       0.00000587
C        8.98900000       0.00000000       0.00000000       0.10982508       0.00000580      -0.00000195
C       10.26800000       0.00000000       0.00000000      -0.10981971      -0.00000257       0.00000396
C       11.54700000       0.00000000       0.00000000       0.11951048       0.00000416      -0.00000352
C       12.82600000       0.00000000       0.00000000      -0.15386952      -0.00000875       0.00000294
C       14.10500000       0.00000000       0.00000000       0.20281188       0.00000661      -0.00000291
C       15.38400000       0.00000000       0.00000000      -0.36645767      -0.00000318       0.00000176
C       16.66300000       0.00000000       0.00000000       0.52431666       0.00000311       0.00000104
C       17.94200000       0.00000000       0.00000000      -0.09940684       0.00000329       0.00000009
C       19.25700000       0.00000000       0.00000000      -0.56460132       0.00000273      -0.00000580
H       -0.55355297       0.93077596       0.08143234       0.01386083      -0.07549320      -0.03375812
H       -0.55355297      -0.93077596      -0.08143234       0.01386169       0.07549056       0.03375889
H       19.81055297       0.93433137       0.00000000      -0.01170536      -0.07848112       0.02440380
H       19.81055297      -0.93433137       0.00000000      -0.01170384       0.07847558      -0.02440324
21
Properties=species:S:1:pos:R:3:orca_vtscf_forces:R:3 orca_vtscf_energy=-17678.020835499923 pbc="F F F"
C        0.00000000       0.00000000       0.00000000       0.50451318       0.00000319      -0.00000018
C        1.31500000       0.00000000       0.00000000       0.10769442      -0.00000022       0.00000191
C        2.59400000       0.00000000       0.00000000      -0.51003218       0.00000129       0.00000036
C        3.87300000       0.00000000       0.00000000       0.33797169       0.00000003       0.00000135
C        5.15200000       0.00000000       0.00000000      -0.16305567       0.00000213       0.00000041
C        6.43100000       0.00000000       0.00000000       0.10266544      -0.00000067       0.00000068
C        7.71000000       0.00000000       0.00000000      -0.05364084      -0.00000331      -0.00000245
C        8.98900000       0.00000000       0.00000000       0.02635608       0.00000537       0.00000427
C       10.26800000       0.00000000       0.00000000      -0.00000602      -0.00000253      -0.00000239
C       11.54700000       0.00000000       0.00000000      -0.02633446       0.00000455       0.00000497
C       12.82600000       0.00000000       0.00000000       0.05361371      -0.00000439      -0.00000424
C       14.10500000       0.00000000       0.00000000      -0.10262704       0.00000311       0.00000336
C       15.38400000       0.00000000       0.00000000       0.16303251      -0.00000265      -0.00000341
C       16.66300000       0.00000000       0.00000000      -0.33791512       0.00000404       0.00000116
C       17.94200000       0.00000000       0.00000000       0.51000775      -0.00000321       0.00000288
C       19.22100000       0.00000000       0.00000000      -0.10723227       0.00000295       0.00000086
C       20.53600000       0.00000000       0.00000000      -0.50958664      -0.00000158      -0.00000810
H       -0.55355297       0.93077596       0.08143234       0.01158843      -0.10863941       0.37312164
H       -0.55355297      -0.93077596      -0.08143234       0.01158912       0.10863682      -0.37312190
H       21.08955297       0.93433137       0.00000000      -0.00892011      -0.07617028      -0.38396928
H       21.08955297      -0.93433137       0.00000000      -0.00892042       0.07617219       0.38397037
22
Properties=species:S:1:pos:R:3:orca_vtscf_forces:R:3 orca_vtscf_energy=-18714.575087463963 pbc="F F F"
C        0.00000000       0.00000000       0.00000000       0.56429651       0.00000701      -0.00000227
C        1.31500000       0.00000000       0.00000000       0.09328056       0.00000012       0.00000159
C        2.59400000       0.00000000       0.00000000      -0.51631946       0.00000352       0.00000158
C        3.87300000       0.00000000       0.00000000       0.35795738      -0.00000316      -0.00000126
C        5.15200000       0.00000000       0.00000000      -0.19251342       0.00000013       0.00000284
C        6.43100000       0.00000000       0.00000000       0.14226847       0.00000227       0.00000063
C        7.71000000       0.00000000       0.00000000      -0.10404470      -0.00000019       0.00000028
C        8.98900000       0.00000000       0.00000000       0.09109950       0.00000076      -0.00000229
C       10.26800000       0.00000000       0.00000000      -0.08226774      -0.00000336       0.00000346
C       11.54700000       0.00000000       0.00000000       0.08226580       0.00000553      -0.00000126
C       12.82600000       0.00000000       0.00000000      -0.09109055      -0.00000206       0.00000376
C       14.10500000       0.00000000       0.00000000       0.10402467       0.00000409      -0.00000288
C       15.38400000       0.00000000       0.00000000      -0.14224218      -0.00000779       0.00000265
C       16.66300000       0.00000000       0.00000000       0.19250147       0.00000595      -0.00000227
C       17.94200000       0.00000000       0.00000000      -0.35790741      -0.00000384       0.00000119
C       19.22100000       0.00000000       0.00000000       0.51628285       0.00000381       0.00000108
C       20.50000000       0.00000000       0.00000000      -0.09289206       0.00000117       0.00000030
C       21.81500000       0.00000000       0.00000000      -0.56830824       0.00000586      -0.00000576
H       -0.55355297       0.93077596       0.08143234       0.01468232      -0.07532975      -0.03103896
H       -0.55355297      -0.93077596      -0.08143234       0.01468231       0.07532509       0.03103938
H       22.36855297       0.93433137       0.00000000      -0.01252155      -0.07808219       0.02170736
H       22.36855297      -0.93433137       0.00000000      -0.01251969       0.07807619      -0.02170707
23
Properties=species:S:1:pos:R:3:orca_vtscf_forces:R:3 orca_vtscf_energy=-19750.120906350952 pbc="F F F"
C        0.00000000       0.00000000       0.00000000       0.51849947       0.00000688      -0.00000045
C        1.31500000       0.00000000       0.00000000       0.10242167       0.00000283      -0.00000166
C        2.59400000       0.00000000       0.00000000      -0.50890015       0.00000278       0.00000370
C        3.87300000       0.00000000       0.00000000       0.34031725      -0.00000511       0.00000176
C        5.15200000       0.00000000       0.00000000      -0.16722820       0.00000109      -0.00000243
C        6.43100000       0.00000000       0.00000000       0.10958774       0.00000332       0.00000045
C        7.71000000       0.00000000       0.00000000      -0.06246410       0.00000138       0.00000265
C        8.98900000       0.00000000       0.00000000       0.03969102      -0.00000054       0.00000074
C       10.26800000       0.00000000       0.00000000      -0.01696884      -0.00000248      -0.00000401
C       11.54700000       0.00000000       0.00000000       0.00000576       0.00000417       0.00000488
C       12.82600000       0.00000000       0.00000000       0.01696065      -0.00000101      -0.00000226
C       14.10500000       0.00000000       0.00000000      -0.03967283       0.00000202       0.00000512
C       15.38400000       0.00000000       0.00000000       0.06243828      -0.00000168      -0.00000426
C       16.66300000       0.00000000       0.00000000      -0.10955296       0.00000113       0.00000362
C       17.94200000       0.00000000       0.00000000       0.16720873      -0.00000071      -0.00000321
C       19.22100000       0.00000000       0.00000000      -0.34026255       0.00000078       0.00000129
C       20.50000000       0.00000000       0.00000000       0.50887796      -0.00000019       0.00000144
C       21.77900000       0.00000000       0.00000000      -0.10197866       0.00000028       0.00000161
C       23.09400000       0.00000000       0.00000000      -0.52347258       0.00000338      -0.00000743
H       -0.55355297       0.93077596       0.08143234       0.01245657      -0.10520312       0.33402883
H       -0.55355297      -0.93077596      -0.08143234       0.01245771       0.10519918      -0.33402920
H       23.64755297       0.93433137       0.00000000      -0.00983106      -0.07614443      -0.34472104
H       23.64755297      -0.93433137       0.00000000      -0.00983072       0.07614277       0.34472190
24
Properties=species:S:1:pos:R:3:orca_vtscf_forces:R:3 orca_vtscf_energy=-20786.620786832897 pbc="F F F"
C        0.00000000       0.00000000       0.00000000       0.56751308       0.00000852      -0.00000219
C        1.31500000       0.00000000       0.00000000       0.08803183       0.00000155      -0.00000275
C        2.59400000       0.00000000       0.00000000      -0.51019898       0.00000132       0.00000427
C        3.87300000       0.00000000       0.00000000       0.35163346      -0.00000166       0.00000157
C        5.15200000       0.00000000       0.00000000      -0.18529639       0.00000025      -0.00000015
C        6.43100000       0.00000000       0.00000000       0.13448398       0.00000152      -0.00000225
C        7.71000000       0.00000000       0.00000000      -0.09437612       0.00000004       0.00000357
C        8.98900000       0.00000000       0.00000000       0.08011989       0.00000232       0.00000004
C       10.26800000       0.00000000       0.00000000      -0.06736088      -0.00000129       0.00000021
C       11.54700000       0.00000000       0.00000000       0.06411584       0.00000147      -0.00000180
C       12.82600000       0.00000000       0.00000000      -0.06411400      -0.00000288       0.00000378
C       14.10500000       0.00000000       0.00000000       0.06735997       0.00000559      -0.00000181