7
Properties=species:S:1:pos:R:3:orca_vtscf_forces:R:3 orca_vtscf_energy=-3174.4973181122755 pbc="F F F"
C        0.00000000       0.00000000       0.00000000       0.94768442      -0.00000194      -0.00000696
C        1.31500000       0.00000000       0.00000000       0.00039392       0.00000135       0.00000044
C        2.63000000       0.00000000       0.00000000      -0.95161372      -0.00000166       0.00000036
H       -0.55355297       0.08143234       0.93077596       0.03697748      -0.12654647      -0.08701695
H       -0.55355297      -0.08143234      -0.93077596       0.03697837       0.12654755       0.08702161
H        3.18355297       0.93433137       0.00000000      -0.03503827      -0.09799344      -0.11601780
H        3.18355297      -0.93433137       0.00000000      -0.03503613       0.09799437       0.11601775
8
Properties=species:S:1:pos:R:3:orca_vtscf_forces:R:3 orca_vtscf_energy=-4208.295106650929 pbc="F F F"
C        0.00000000       0.00000000       0.00000000      -0.47889444       0.00000399      -0.00000605
C        1.31500000       0.00000000       0.00000000       1.18755577       0.00000026       0.00000366
C        2.59400000       0.00000000       0.00000000      -1.18697648      -0.00000690       0.00000710
C        3.90900000       0.00000000       0.00000000       0.47190517       0.00000379      -0.00000030
H       -0.55355297       0.08143234       0.93077596      -0.11904380       1.48858741      -0.18096611
H       -0.55355297      -0.08143234      -0.93077596      -0.11904371      -1.48858667       0.18096656
H        4.46255297       0.93433137       0.00000000       0.12265862      -0.05126446       1.50145122
H        4.46255297      -0.93433137       0.00000000       0.12265787       0.05126303      -1.50145831
9
Properties=species:S:1:pos:R:3:orca_vtscf_forces:R:3 orca_vtscf_energy=-5246.39496277229 pbc="F F F"
C        0.00000000       0.00000000       0.00000000       0.64955747      -0.00000206      -0.00000730
C        1.31500000       0.00000000       0.00000000      -0.21312929      -0.00000142       0.00000494
C        2.59400000       0.00000000       0.00000000      -0.00007537       0.00000175      -0.00000364
C        3.87300000       0.00000000       0.00000000       0.21361234      -0.00000236       0.00000089
C        5.18800000       0.00000000       0.00000000      -0.65354975      -0.00000116       0.00000241
H       -0.55355297       0.08143234       0.93077596       0.02219272      -0.08294719      -0.08241086
H       -0.55355297      -0.08143234      -0.93077596       0.02219067       0.08294730       0.08241442
H        5.74155297       0.93433137       0.00000000      -0.02015606      -0.08962463      -0.07288951
H        5.74155297      -0.93433137       0.00000000      -0.02015735       0.08962924       0.07288981
10
Properties=species:S:1:pos:R:3:orca_vtscf_forces:R:3 orca_vtscf_energy=-6280.90468369078 pbc="F F F"
C        0.00000000       0.00000000       0.00000000       0.06818308       0.00000222       0.00000314
C        1.31500000       0.00000000       0.00000000       0.55120146      -0.00000640       0.00000027
C        2.59400000       0.00000000       0.00000000      -1.12262933       0.00000613      -0.00000019
C        3.87300000       0.00000000       0.00000000       1.12267013      -0.00000177      -0.00000013
C        5.15200000       0.00000000       0.00000000      -0.55065312       0.00000480       0.00000209
C        6.46700000       0.00000000       0.00000000      -0.07470111      -0.00000791      -0.00000536
H       -0.55355297       0.08143234       0.93077596      -0.04935621       1.03452169      -0.15548005
H       -0.55355297      -0.08143234      -0.93077596      -0.04935708      -1.03452261       0.15547882
H        7.02055297       0.93433137       0.00000000       0.05266351      -0.06534914       1.04699040
H        7.02055297      -0.93433137       0.00000000       0.05266499       0.06535198      -1.04698717
11
Properties=species:S:1:pos:R:3:orca_vtscf_forces:R:3 orca_vtscf_energy=-7318.380796270486 pbc="F F F"
C        0.00000000       0.00000000       0.00000000       0.58216900       0.00000306      -0.00000515
C        1.31500000       0.00000000       0.00000000       0.00523775      -0.00000140      -0.00000054
C        2.59400000       0.00000000       0.00000000      -0.35155113       0.00000662       0.00000205
C        3.87300000       0.00000000       0.00000000       0.00005804      -0.00000560       0.00000075
C        5.15200000       0.00000000       0.00000000       0.35147454       0.00000118      -0.00000146
C        6.43100000       0.00000000       0.00000000      -0.00477585       0.00000063       0.00000264
C        7.74600000       0.00000000       0.00000000      -0.58619648      -0.00000076      -0.00000340
H       -0.55355297       0.08143234       0.93077596       0.01716869      -0.06328944      -0.07941029
H       -0.55355297      -0.08143234      -0.93077596       0.01717021       0.06328588       0.07941341
H        8.29955297       0.93433137       0.00000000      -0.01508661      -0.08493497      -0.05353054
H        8.29955297      -0.93433137       0.00000000      -0.01508439       0.08493561       0.05353383
12
Properties=species:S:1:pos:R:3:orca_vtscf_forces:R:3 orca_vtscf_energy=-8353.261121533214 pbc="F F F"
C        0.00000000       0.00000000       0.00000000       0.27003631      -0.00000495       0.00000530
C        1.31500000       0.00000000       0.00000000       0.33780626       0.00000975       0.00000480
C        2.59400000       0.00000000       0.00000000      -0.78342553      -0.00000519      -0.00000531
C        3.87300000       0.00000000       0.00000000       0.66461542       0.00000540       0.00000701
C        5.15200000       0.00000000       0.00000000      -0.66457679      -0.00001120      -0.00000943
C        6.43100000       0.00000000       0.00000000       0.78337913       0.00001089       0.00000602
C        7.71000000       0.00000000       0.00000000      -0.33716694      -0.00000787      -0.00000033
C        9.02500000       0.00000000       0.00000000      -0.27615780       0.00000330      -0.00000346
H       -0.55355297       0.08143234       0.93077596      -0.02207619       0.78988120      -0.13958080
H       -0.55355297      -0.08143234      -0.93077596      -0.02207473      -0.78988300       0.13957955
H        9.57855297       0.93433137       0.00000000       0.02517383      -0.07078016       0.80190079
H        9.57855297      -0.93433137       0.00000000       0.02517390       0.07077547      -0.80190177
13
Properties=species:S:1:pos:R:3:orca_vtscf_forces:R:3 orca_vtscf_energy=-9390.398714136625 pbc="F F F"
C        0.00000000       0.00000000       0.00000000       0.56483185      -0.00000388       0.00000718
C        1.31500000       0.00000000       0.00000000       0.05867365      -0.00000179      -0.00000630
C        2.59400000       0.00000000       0.00000000      -0.44932667       0.00001314       0.00000881
C        3.87300000       0.00000000       0.00000000       0.23230310      -0.00001023      -0.00000547
C        5.15200000       0.00000000       0.00000000      -0.00003549       0.00000871       0.00000003
C        6.43100000       0.00000000       0.00000000      -0.23224292      -0.00001644      -0.00000043
C        7.71000000       0.00000000       0.00000000       0.44924382       0.00001529       0.00000116
C        8.98900000       0.00000000       0.00000000      -0.05816760      -0.00001025       0.00000117
C       10.30400000       0.00000000       0.00000000      -0.56886340       0.00001936      -0.00000196
H       -0.55355297       0.08143234       0.93077596       0.01558178      -0.05192713      -0.07779789
H       -0.55355297      -0.08143234      -0.93077596       0.01557911       0.05192509       0.07779230
H       10.85755297       0.93433137       0.00000000      -0.01347212      -0.08234657      -0.04233112
H       10.85755297      -0.93433137       0.00000000      -0.01346962       0.08233345       0.04232891
14
Properties=species:S:1:pos:R:3:orca_vtscf_forces:R:3 orca_vtscf_energy=-10425.505186667122 pbc="F F F"
C        0.00000000       0.00000000       0.00000000       0.36945675       0.00000418      -0.00000081
C        1.31500000       0.00000000       0.00000000       0.24349689      -0.00000957      -0.00000031
C        2.59400000       0.00000000       0.00000000      -0.66595631       0.00001219       0.00000160
C        3.87300000       0.00000000       0.00000000       0.51334065      -0.00000720      -0.00000137
C        5.15200000       0.00000000       0.00000000      -0.38588079       0.00000498      -0.00000226
C        6.43100000       0.00000000       0.00000000       0.38588613      -0.00000625       0.00000368
C        7.71000000       0.00000000       0.00000000      -0.51328864       0.00000914       0.00000185
C        8.98900000       0.00000000       0.00000000       0.66593068      -0.00000759      -0.00000279
C       10.26800000       0.00000000       0.00000000      -0.24298196       0.00000740       0.00000461
C       11.58300000       0.00000000       0.00000000      -0.37517318      -0.00001194      -0.00000359
H       -0.55355297       0.08143234       0.93077596      -0.00843815       0.63717348      -0.12870879
H       -0.55355297      -0.08143234      -0.93077596      -0.00843720      -0.63717571       0.12870929
H       12.13655297       0.93433137       0.00000000       0.01139506      -0.07321876       0.64882211
H       12.13655297      -0.93433137       0.00000000       0.01139179       0.07322903      -0.64882207
15
Properties=species:S:1:pos:R:3:orca_vtscf_forces:R:3 orca_vtscf_energy=-11462.430356291461 pbc="F F F"
C        0.00000000       0.00000000       0.00000000       0.56090965       0.00000189      -0.00000435
C        1.31500000       0.00000000       0.00000000       0.07670969       0.00000535       0.00000351
C        2.59400000       0.00000000       0.00000000      -0.48176869      -0.00000223      -0.00000485
C        3.87300000       0.00000000       0.00000000       0.29505430      -0.00000479       0.00000444
C        5.15200000       0.00000000       0.00000000      -0.10268676       0.00000366      -0.00000853
C        6.43100000       0.00000000       0.00000000       0.00003441      -0.00000085       0.00001163
C        7.71000000       0.00000000       0.00000000       0.10264645       0.00000340      -0.00000188
C        8.98900000       0.00000000       0.00000000      -0.29498478       0.00000017       0.00000327
C       10.26800000       0.00000000       0.00000000       0.48166465      -0.00000296      -0.00000931
C       11.54700000       0.00000000       0.00000000      -0.07625372      -0.00000193       0.00000191
C       12.86200000       0.00000000       0.00000000      -0.56491035      -0.00000085      -0.00000326
H       -0.55355297       0.08143234       0.93077596       0.01513564      -0.04448727      -0.07686504
H       -0.55355297      -0.08143234      -0.93077596       0.01513714       0.04448552       0.07686847
H       13.41555297       0.93433137       0.00000000      -0.01300699      -0.08077462      -0.03498959
H       13.41555297      -0.93433137       0.00000000      -0.01300777       0.08077987       0.03498859
16
Properties=species:S:1:pos:R:3:orca_vtscf_forces:R:3 orca_vtscf_energy=-12497.68907471043 pbc="F F F"
C        0.00000000       0.00000000       0.00000000       0.42710230      -0.00000039      -0.00000867
C        1.31500000       0.00000000       0.00000000       0.19196522       0.00000406      -0.00000137
C        2.59400000       0.00000000       0.00000000      -0.60777092       0.00000286      -0.00000126
C        3.87300000       0.00000000       0.00000000       0.44744209      -0.00000333       0.00000153
C        5.15200000       0.00000000       0.00000000      -0.29479717      -0.00000036      -0.00000099
C        6.43100000       0.00000000       0.00000000       0.25848669       0.00000565       0.00000342
C        7.71000000       0.00000000       0.00000000      -0.25846926      -0.00000159       0.00000110
C        8.98900000       0.00000000       0.00000000       0.29479167      -0.00000133      -0.00000137
C       10.26800000       0.00000000       0.00000000      -0.44741345      -0.00000871      -0.00000083
C       11.54700000       0.00000000       0.00000000       0.60779462       0.00000815       0.00000596
C       12.82600000       0.00000000       0.00000000      -0.19147799       0.00000222      -0.00000565
C       14.14100000       0.00000000       0.00000000      -0.43258690       0.00000986      -0.00000146
H       -0.55355297       0.08143234       0.93077596      -0.00069055       0.53288283      -0.12087454
H       -0.55355297      -0.08143234      -0.93077596      -0.00068893      -0.53288344       0.12087998
H       14.69455297       0.93433137       0.00000000       0.00353558      -0.07448613       0.54422738
H       14.69455297      -0.93433137       0.00000000       0.00353724       0.07447621      -0.54422800
17
Properties=species:S:1:pos:R:3:orca_vtscf_forces:R:3 orca_vtscf_energy=-13534.468684242864 pbc="F F F"
C        0.00000000       0.00000000       0.00000000       0.56125186       0.00000038       0.00000021
C        1.31500000       0.00000000       0.00000000       0.08292429      -0.00000074       0.00000006
C        2.59400000       0.00000000       0.00000000      -0.49415673      -0.00000142      -0.00000351
C        3.87300000       0.00000000       0.00000000       0.31939262      -0.00000586       0.00000675
C        5.15200000       0.00000000       0.00000000      -0.13922226       0.00000834      -0.00000232
C        6.43100000       0.00000000       0.00000000       0.06438914       0.00000167       0.00000580
C        7.71000000       0.00000000       0.00000000      -0.00002596       0.00000006      -0.00000606
C        8.98900000       0.00000000       0.00000000      -0.06434049      -0.00000858       0.00000644
C       10.26800000       0.00000000       0.00000000       0.13919552       0.00000541      -0.00000405
C       11.54700000       0.00000000       0.00000000      -0.31933903      -0.00000278       0.00000321
C       12.82600000       0.00000000       0.00000000       0.49413263       0.00000414      -0.00000170
C       14.10500000       0.00000000       0.00000000      -0.08251865       0.00000470      -0.00000185
C       15.42000000       0.00000000       0.00000000      -0.56526649       0.00000421      -0.00000485
H       -0.55355297       0.08143234       0.93077596       0.01515039      -0.03922586      -0.07627776
H       -0.55355297      -0.08143234      -0.93077596       0.01515063       0.03922630       0.07628007
H       15.97355297       0.93433137       0.00000000      -0.01301123      -0.07973954      -0.02979144
H       15.97355297      -0.93433137       0.00000000      -0.01300965       0.07973245       0.02979258
18
Properties=species:S:1:pos:R:3:orca_vtscf_forces:R:3 orca_vtscf_energy=-14569.836799760858 pbc="F F F"
C        0.00000000       0.00000000       0.00000000       0.46407177       0.00000141      -0.00000221
C        1.31500000       0.00000000       0.00000000       0.16007381      -0.00000031       0.00000315
C        2.59400000       0.00000000       0.00000000      -0.57384719       0.00000237       0.00000117
C        3.87300000       0.00000000       0.00000000       0.41158025      -0.00000467      -0.00000036
C        5.15200000       0.00000000       0.00000000      -0.25044038      -0.00000092      -0.00000366
C        6.43100000       0.00000000       0.00000000       0.20457442       0.00000577       0.00000721
C        7.71000000       0.00000000       0.00000000      -0.17913061       0.00000016      -0.00000076
C        8.98900000       0.00000000       0.00000000       0.17912243       0.00000333       0.00000354
C       10.26800000       0.00000000       0.00000000      -0.20454669      -0.00001110      -0.00000857
C       11.54700000       0.00000000       0.00000000       0.25042428       0.00000594       0.00000812
C       12.82600000       0.00000000       0.00000000      -0.41152833      -0.00000257      -0.00000448
C       14.10500000       0.00000000       0.00000000       0.57384581       0.00000370       0.00000728
C       15.38400000       0.00000000       0.00000000      -0.15960039       0.00000419      -0.00001066
C       16.69900000       0.00000000       0.00000000      -0.46936760       0.00001111       0.00000073
H       -0.55355297       0.08143234       0.93077596       0.00415672       0.45716691      -0.11494858
H       -0.55355297      -0.08143234      -0.93077596       0.00415745      -0.45716759       0.11494739
H       17.25255297       0.93433137       0.00000000      -0.00139221      -0.07515958       0.46827446
H       17.25255297      -0.93433137       0.00000000      -0.00138918       0.07514933      -0.46827386
19
Properties=species:S:1:pos:R:3:orca_vtscf_forces:R:3 orca_vtscf_energy=-15606.510515301134 pbc="F F F"
C        0.00000000       0.00000000       0.00000000       0.56313403      -0.00000020       0.00000537
C        1.31500000       0.00000000       0.00000000       0.08435486      -0.00000519       0.00000278
C        2.59400000       0.00000000       0.00000000      -0.49887894       0.00000673       0.00000394
C        3.87300000       0.00000000       0.00000000       0.33012276      -0.00000573      -0.00000330
C        5.15200000       0.00000000       0.00000000      -0.15495443       0.00000390      -0.00000172
C        6.43100000       0.00000000       0.00000000       0.09052321      -0.00000298       0.00000474
C        7.71000000       0.00000000       0.00000000      -0.03739223       0.00000490       0.00000086
C        8.98900000       0.00000000       0.00000000       0.00001165      -0.00000168       0.00000322
C       10.26800000       0.00000000       0.00000000       0.03735986       0.00000394      -0.00000468
C       11.54700000       0.00000000       0.00000000      -0.09048724      -0.00000821       0.00000338
C       12.82600000       0.00000000       0.00000000       0.15493454       0.00000586      -0.00000371
C       14.10500000       0.00000000       0.00000000      -0.33006850      -0.00000428       0.00000227
C       15.38400000       0.00000000       0.00000000       0.49884802       0.00000471       0.00000093
C       16.66300000       0.00000000       0.00000000      -0.08395945       0.00000220       0.00000157
C       17.97800000       0.00000000       0.00000000      -0.56714556       0.00000557      -0.00000699
H       -0.55355297       0.08143234       0.93077596       0.01534094      -0.03530775      -0.07588305
H       -0.55355297      -0.08143234      -0.93077596       0.01534193       0.03530806       0.07588115
H       18.53155297       0.93433137       0.00000000      -0.01319296      -0.07900657      -0.02591659
H       18.53155297      -0.93433137       0.00000000      -0.01319058       0.07899964       0.02591715
20
Properties=species:S:1:pos:R:3:orca_vtscf_forces:R:3 orca_vtscf_energy=-16641.960957749157 pbc="F F F"
C        0.00000000       0.00000000       0.00000000       0.48945721       0.00000146       0.00000342
C        1.31500000       0.00000000       0.00000000       0.13857198      -0.00000308       0.00000126
C        2.59400000       0.00000000       0.00000000      -0.55196181       0.00000354       0.00000095
C        3.87300000       0.00000000       0.00000000       0.38938832      -0.00000274       0.00000140
C        5.15200000       0.00000000       0.00000000      -0.22458530       0.00000242      -0.00000026
C        6.43100000       0.00000000       0.00000000       0.17553172       0.00000021       0.00000055
C        7.71000000       0.00000000       0.00000000      -0.14133443      -0.00000293      -0.00000068
C        8.98900000       0.00000000       0.00000000       0.13180822       0.00000463       0.00000492
C       10.26800000       0.00000000       0.00000000      -0.13180310      -0.00000085      -0.00000155
C       11.54700000       0.00000000       0.00000000       0.14131789       0.00000377       0.00000206
C       12.82600000       0.00000000       0.00000000      -0.17550055      -0.00001013      -0.00000610
C       14.10500000       0.00000000       0.00000000       0.22456919       0.00000661       0.00000689
C       15.38400000       0.00000000       0.00000000      -0.38933894      -0.00000258      -0.00000306
C       16.66300000       0.00000000       0.00000000       0.55195650       0.00000325       0.00000509
C       17.94200000       0.00000000       0.00000000      -0.13811995       0.00000412      -0.00000773
C       19.25700000       0.00000000       0.00000000      -0.49460442       0.00000410      -0.00000117
H       -0.55355297       0.08143234       0.93077596       0.00739984       0.39972771      -0.11032722
H       -0.55355297      -0.08143234      -0.93077596       0.00740173      -0.39972845       0.11032522
H       19.81055297       0.93433137       0.00000000      -0.00469872      -0.07554445       0.41064184
H       19.81055297      -0.93433137       0.00000000      -0.00469650       0.07553700      -0.41064136
21
Properties=species:S:1:pos:R:3:orca_vtscf_forces:R:3 orca_vtscf_energy=-17678.554282586338 pbc="F F F"
C        0.00000000       0.00000000       0.00000000       0.56550239      -0.00000080       0.00000137
C        1.31500000       0.00000000       0.00000000       0.08369338      -0.00000144       0.00000092
C        2.59400000       0.00000000       0.00000000      -0.50018423       0.00000315       0.00000129
C        3.87300000       0.00000000       0.00000000       0.33486681      -0.00000534       0.00000160
C        5.15200000       0.00000000       0.00000000      -0.16234899       0.00000596       0.00000172
C        6.43100000       0.00000000       0.00000000       0.10292729      -0.00000016      -0.00000070
C        7.71000000       0.00000000       0.00000000      -0.05418635      -0.00000108      -0.00000178
C        8.98900000       0.00000000       0.00000000       0.02667132      -0.00000225       0.00000524
C       10.26800000       0.00000000       0.00000000      -0.00000781       0.00000423      -0.00000227
C       11.54700000       0.00000000       0.00000000      -0.02665487      -0.00000007       0.00000449
C       12.82600000       0.00000000       0.00000000       0.05415932       0.00000202      -0.00000434
C       14.10500000       0.00000000       0.00000000      -0.10289304      -0.00000648       0.00000388
C       15.38400000       0.00000000       0.00000000       0.16232903       0.00000432      -0.00000325
C       16.66300000       0.00000000       0.00000000      -0.33481337      -0.00000127       0.00000199
C       17.94200000       0.00000000       0.00000000       0.50015551       0.00000111       0.00000077
C       19.22100000       0.00000000       0.00000000      -0.08330517       0.00000415       0.00000081
C       20.53600000       0.00000000       0.00000000      -0.56951533       0.00000101      -0.00000645
H       -0.55355297       0.08143234       0.93077596       0.01561301      -0.03227578      -0.07560294
H       -0.55355297      -0.08143234      -0.93077596       0.01561286       0.03227616       0.07560282
H       21.08955297       0.93433137       0.00000000      -0.01345643      -0.07846466      -0.02291725
H       21.08955297      -0.93433137       0.00000000      -0.01345512       0.07846185       0.02291770
22
Properties=species:S:1:pos:R:3:orca_vtscf_forces:R:3 orca_vtscf_energy=-18714.06885826432 pbc="F F F"
C        0.00000000       0.00000000       0.00000000       0.50780280       0.00000082      -0.00000113
C        1.31500000       0.00000000       0.00000000       0.12326282      -0.00000120       0.00000161
C        2.59400000       0.00000000       0.00000000      -0.53691614       0.00000297       0.00000138
C        3.87300000       0.00000000       0.00000000       0.37453450      -0.00000413       0.00000093
C        5.15200000       0.00000000       0.00000000      -0.20797073       0.00000296       0.00000018
C        6.43100000       0.00000000       0.00000000       0.15762282       0.00000155       0.00000153
C        7.71000000       0.00000000       0.00000000      -0.11950453      -0.00000071       0.00000036
C        8.98900000       0.00000000       0.00000000       0.10684246       0.00000108       0.00000138
C       10.26800000       0.00000000       0.00000000      -0.09813435      -0.00000383      -0.00000217
C       11.54700000       0.00000000       0.00000000       0.09813391       0.00000519       0.00000460
C       12.82600000       0.00000000       0.00000000      -0.10683258      -0.00000159      -0.00000137
C       14.10500000       0.00000000       0.00000000       0.11948709       0.00000442       0.00000238
C       15.38400000       0.00000000       0.00000000      -0.15759452      -0.00000950      -0.00000451
C       16.66300000       0.00000000       0.00000000       0.20795388       0.00000665       0.00000484
C       17.94200000       0.00000000       0.00000000      -0.37448416      -0.00000385      -0.00000257
C       19.22100000       0.00000000       0.00000000       0.53690881       0.00000420       0.00000488
C       20.50000000       0.00000000       0.00000000      -0.12282584       0.00000188      -0.00000631
C       21.81500000       0.00000000       0.00000000      -0.51283286       0.00000698      -0.00000197
H       -0.55355297       0.08143234       0.93077596       0.00967656       0.35470324      -0.10661529
H       -0.55355297      -0.08143234      -0.93077596       0.00967685      -0.35470358       0.10661452
H       22.36855297       0.93433137       0.00000000      -0.00702529      -0.07575872       0.36545554
H       22.36855297      -0.93433137       0.00000000      -0.00702281       0.07575106      -0.36545533
23
Properties=species:S:1:pos:R:3:orca_vtscf_forces:R:3 orca_vtscf_energy=-19750.59913636964 pbc="F F F"
C        0.00000000       0.00000000       0.00000000       0.56794525      -0.00000103       0.00000544
C        1.31500000       0.00000000       0.00000000       0.08208051      -0.00000302       0.00000136
C        2.59400000       0.00000000       0.00000000      -0.49987237       0.00000510       0.00000312
C        3.87300000       0.00000000       0.00000000       0.33672167      -0.00000439      -0.00000190
C        5.15200000       0.00000000       0.00000000      -0.16576681       0.00000414       0.00000091
C        6.43100000       0.00000000       0.00000000       0.10915856      -0.00000079       0.00000174
C        7.71000000       0.00000000       0.00000000      -0.06259582       0.00000193       0.00000276
C        8.98900000       0.00000000       0.00000000       0.03980403      -0.00000106      -0.00000081
C       10.26800000       0.00000000       0.00000000      -0.01714413       0.00000089      -0.00000240
C       11.54700000       0.00000000       0.00000000       0.00000538      -0.00000215       0.00000411
C       12.82600000       0.00000000       0.00000000       0.01713426       0.00000431      -0.00000192
C       14.10500000       0.00000000       0.00000000      -0.03978863      -0.00000204       0.00000447
C       15.38400000       0.00000000       0.00000000       0.06256879       0.00000371      -0.00000350
C       16.66300000       0.00000000       0.00000000      -0.10912640      -0.00000637       0.00000338
C       17.94200000       0.00000000       0.00000000       0.16574788       0.00000485      -0.00000264
C       19.22100000       0.00000000       0.00000000      -0.33666919      -0.00000367       0.00000145
C       20.50000000       0.00000000       0.00000000       0.49984713       0.00000355       0.00000061
C       21.77900000       0.00000000       0.00000000      -0.08170681       0.00000122       0.00000073
C       23.09400000       0.00000000       0.00000000      -0.57195361       0.00000542      -0.00000577
H       -0.55355297       0.08143234       0.93077596       0.01590300      -0.02986140      -0.07539072
H       -0.55355297      -0.08143234      -0.93077596       0.01590400       0.02986157       0.07538939
H       23.64755297       0.93433137       0.00000000      -0.01374173      -0.07804577      -0.02052817
H       23.64755297      -0.93433137       0.00000000      -0.01374006       0.07804028       0.02052850
24
Properties=species:S:1:pos:R:3:orca_vtscf_forces:R:3 orca_vtscf_energy=-20786.165042360808 pbc="F F F"
C        0.00000000       0.00000000       0.00000000       0.52159204       0.00000071       0.00000415
C        1.31500000       0.00000000       0.00000000       0.11186396      -0.00000285       0.00000090
C        2.59400000       0.00000000       0.00000000      -0.52602693       0.00000440       0.00000203
C        3.87300000       0.00000000       0.00000000       0.36399961      -0.00000332      -0.00000025
C        5.15200000       0.00000000       0.00000000      -0.19657560       0.00000288       0.00000094
C        6.43100000       0.00000000       0.00000000       0.14560594       0.00000010       0.00000035
C        7.71000000       0.00000000       0.00000000      -0.10552667       0.00000007       0.00000214
C        8.98900000       0.00000000       0.00000000       0.09156005       0.00000172       0.00000112
C       10.26800000       0.00000000       0.00000000      -0.07895560      -0.00000089      -0.00000043
C       11.54700000       0.00000000       0.00000000       0.07586162       0.00000158       0.00000012
C       12.82600000       0.00000000       0.00000000      -0.07585704      -0.00000407      -0.00000098
C       14.10500000       0.00000000       0.00000000       0.07895465       0.00000602       0.00000391