7
Properties=species:S:1:pos:R:3:orca_vtscf_forces:R:3:forces:R:3 nC=3 origin=geom-opt-rotated angle=0.71 phi=90.71 orca_vtscf_energy=-3174.5016436125647 config_type=in-domain energy=-3174.5016436125647 dataset=GNL-v0.2 pbc="F F F"
C       -1.29103233       0.00400071       0.00978638       0.57367748       0.05901419      -0.20829371       0.57367748       0.05901419      -0.20829371
C        0.02240907       0.01867472      -0.00977278      -1.20090976      -0.21822888       0.19119467      -1.20090976      -0.21822888       0.19119467
C        1.31817403      -0.00151443      -0.00103319      -0.13000336       0.42826274      -0.12064111      -0.13000336       0.42826274      -0.12064111
H       -1.87119416       0.01289900      -0.91122078       0.19786687      -0.02987415       0.06037377       0.19786687      -0.02987415       0.06037377
H       -1.86769319      -0.01023764       0.93019835       0.23825012       0.04134581       0.02414344       0.23825012       0.04134581       0.02414344
H        1.87863818      -0.91089250      -0.00204865       0.18551717      -0.54245248      -0.00564749       0.18551717      -0.54245248      -0.00564749
H        1.87843253       0.91729075      -0.02552697       0.13540647       0.26226299       0.05834224       0.13540647       0.26226299       0.05834224
7
Properties=species:S:1:pos:R:3:orca_vtscf_forces:R:3:forces:R:3 nC=3 origin=geom-opt-rotated angle=9.71 phi=99.71 orca_vtscf_energy=-3174.4397976032524 config_type=in-domain energy=-3174.4397976032524 dataset=GNL-v0.2 pbc="F F F"
C       -1.29078657       0.00436424       0.00096397      -2.18902395      -0.02779646       0.01287198      -2.18902395      -0.02779646       0.01287198
C       -0.01863478      -0.00277474      -0.00354759       3.52706559       0.02899232       0.00585656       3.52706559       0.02899232       0.00585656
C        1.30784573      -0.00627086      -0.00043918      -1.37377382       0.08141539      -0.09223844      -1.37377382       0.08141539      -0.09223844
H       -1.88007233       0.14299999      -0.90372697       0.19240817      -0.19934063       0.00172582       0.19240817      -0.19934063       0.00172582
H       -1.86649038      -0.13903853       0.91307068       0.15917911       0.21957195       0.00903722       0.15917911       0.21957195       0.00903722
H        1.87125466      -0.93128689      -0.01546184      -0.11122577      -0.06323091      -0.17593981      -0.11122577      -0.06323091      -0.17593981
H        1.88512552       0.91482103      -0.01184753      -0.20375736      -0.04040630       0.23811619      -0.20375736      -0.04040630       0.23811619
7
Properties=species:S:1:pos:R:3:orca_vtscf_forces:R:3:forces:R:3 nC=3 origin=geom-opt-rotated angle=21.71 phi=111.71 orca_vtscf_energy=-3174.3346553534157 config_type=in-domain energy=-3174.3346553534157 dataset=GNL-v0.2 pbc="F F F"
C       -1.29176760      -0.00466023       0.00032720      -0.66194109       0.03628166      -0.11539011      -0.66194109       0.03628166      -0.11539011
C        0.00407531      -0.00789009       0.00002066       0.50416322      -0.03139062       0.04036995       0.50416322      -0.03139062       0.04036995
C        1.30866424      -0.01754810       0.01017558      -0.56149685       0.98042575      -0.02090276      -0.56149685       0.98042575      -0.02090276
H       -1.86929516       0.33620675      -0.86188355       0.24007419      -0.52256067      -0.02202231       0.24007419      -0.52256067      -0.02202231
H       -1.87025057      -0.34507018       0.85773902       0.18678123       0.49781629       0.11950021       0.18678123       0.49781629       0.11950021
H        1.86076902      -0.92028749       0.00124174       0.43438742      -0.85854044      -0.50784534       0.43438742      -0.85854044      -0.50784534
H        1.87804645       0.91056646       0.01650993      -0.14575521      -0.10219445       0.50633007      -0.14575521      -0.10219445       0.50633007
7
Properties=species:S:1:pos:R:3:orca_vtscf_forces:R:3:forces:R:3 nC=3 origin=geom-opt-rotated angle=27.71 phi=117.71 orca_vtscf_energy=-3174.2138845630147 config_type=in-domain energy=-3174.2138845630147 dataset=GNL-v0.2 pbc="F F F"
C       -1.30866177      -0.00289630      -0.01116166       0.27426682      -0.32853697       0.95637005       0.27426682      -0.32853697       0.95637005
C       -0.00012868      -0.00378447      -0.00481135      -0.90024933      -0.02779697      -0.09917507      -0.90024933      -0.02779697      -0.09917507
C        1.29349983      -0.00490958      -0.00240781       0.93416197       0.83839248       0.03143754       0.93416197       0.83839248       0.03143754
H       -1.88177962       0.43685585      -0.80225780      -0.14711160      -0.39467077      -0.70492863      -0.14711160      -0.39467077      -0.70492863
H       -1.87233674      -0.42341756       0.83788620       0.35154636       0.73522278      -0.17206322       0.35154636       0.73522278      -0.17206322
H        1.87960913      -0.91040599      -0.00900428      -0.02209539      -0.24404394      -0.64085167      -0.02209539      -0.24404394      -0.64085167
H        1.87393060       0.93880750       0.00675564      -0.49381292      -0.57739187       0.62812121      -0.49381292      -0.57739187       0.62812121
7
Properties=species:S:1:pos:R:3:orca_vtscf_forces:R:3:forces:R:3 nC=3 origin=geom-opt-rotated angle=75.71 phi=165.71 orca_vtscf_energy=-3172.4726315738308 config_type=in-domain energy=-3172.4726315738308 dataset=GNL-v0.2 pbc="F F F"
C       -1.30639013       0.01026805      -0.00839685      -0.54523800      -1.13061329       0.34593329      -0.54523800      -1.13061329       0.34593329
C       -0.00591167      -0.00956974      -0.00222326       0.53764045       0.40937836      -0.10001832       0.53764045       0.40937836      -0.10001832
C        1.30247399       0.01837819      -0.02053331       0.32269977      -0.53775046       0.10761824       0.32269977      -0.53775046       0.10761824
H       -1.86661432       0.88797563      -0.23086014      -0.39672002       0.22332569      -1.67145517      -0.39672002       0.22332569      -1.67145517
H       -1.85377400      -0.91052805       0.22930404       0.05155949       0.72509459       1.39879243       0.05155949       0.72509459       1.39879243
H        1.86284054      -0.91381057      -0.01049648       0.01546160       0.00650610      -1.61705096       0.01546160       0.00650610      -1.61705096
H        1.88586795       0.92163493       0.02295136       0.01607240       0.30322685       1.53652362       0.01607240       0.30322685       1.53652362
8
Properties=species:S:1:pos:R:3:orca_vtscf_forces:R:3:forces:R:3 nC=4 origin=geom-opt-rotated angle=16.56 phi=196.56 orca_vtscf_energy=-4210.275672917929 config_type=in-domain energy=-4210.275672917929 dataset=GNL-v0.2 pbc="F F F"
C       -1.97269137      -0.00413605      -0.00765614       1.27037395       0.13451471       0.18939731       1.27037395       0.13451471       0.18939731
C       -0.64760627      -0.01422280       0.00798234       1.08927863       0.18267742      -0.16881745       1.08927863       0.18267742      -0.16881745
C        0.64985362       0.01170885      -0.00808662      -1.91787843      -0.18418001       0.08681484      -1.91787843      -0.18418001       0.08681484
C        1.96101878       0.00052975      -0.01181108      -0.50954240       0.38530528       0.11580211      -0.50954240       0.38530528       0.11580211
H       -2.52918262       0.88507036       0.26836418       0.01902884       0.06267636      -0.32799111       0.01902884       0.06267636      -0.32799111
H       -2.51909470      -0.89523815      -0.26293979      -0.18997671      -0.28245810       0.20522039      -0.18997671      -0.28245810       0.20522039
H        2.52260093      -0.91195696       0.01168029       0.16986109      -0.42846819      -0.35494176       0.16986109      -0.42846819      -0.35494176
H        2.51903461       0.92566004       0.00229133       0.06795417       0.13032799       0.25509756       0.06795417       0.13032799       0.25509756
8
Properties=species:S:1:pos:R:3:orca_vtscf_forces:R:3:forces:R:3 nC=4 origin=geom-opt-rotated angle=34.56 phi=214.56 orca_vtscf_energy=-4210.059585347296 config_type=in-domain energy=-4210.059585347296 dataset=GNL-v0.2 pbc="F F F"
C       -1.95650112       0.00104836       0.00250940       0.09656083       0.05958951       0.00032935       0.09656083       0.05958951       0.00032935
C       -0.64761700       0.00566462      -0.01047202       1.19355522       0.05018400       0.05455471       1.19355522       0.05018400       0.05455471
C        0.63682824       0.00791309      -0.01232869      -1.22985064      -0.16330809      -0.01705638      -1.22985064      -0.16330809      -0.01705638
C        1.94431393      -0.00569666      -0.00976738       0.33061412       0.11382322      -0.05065598       0.33061412       0.11382322      -0.05065598
H       -2.53012742       0.76151235       0.51447103       0.00687677       0.45078241      -0.43258828       0.00687677       0.45078241      -0.43258828
H       -2.51100762      -0.76797275      -0.51004762      -0.11527691      -0.54245475       0.39500590      -0.11527691      -0.54245475       0.39500590
H        2.53734189      -0.91804104      -0.01855236      -0.24128689       0.00338896      -0.59486636      -0.24128689       0.00338896      -0.59486636
H        2.50873166       0.92179665      -0.01512036      -0.04124804       0.02943100       0.64521552      -0.04124804       0.02943100       0.64521552
8
Properties=species:S:1:pos:R:3:orca_vtscf_forces:R:3:forces:R:3 nC=4 origin=geom-opt-rotated angle=46.56 phi=226.56 orca_vtscf_energy=-4209.777414880261 config_type=in-domain energy=-4209.777414880261 dataset=GNL-v0.2 pbc="F F F"
C       -1.95353025       0.00260309      -0.00394733      -0.22518712      -0.23611762      -0.27508724      -0.22518712      -0.23611762      -0.27508724
C       -0.64040801      -0.01272315      -0.02603901       0.85138396       0.11669707       0.26597035       0.85138396       0.11669707       0.26597035
C        0.64126181      -0.00871848       0.00387420      -0.42000495       0.03318282      -0.14391303      -0.42000495       0.03318282      -0.14391303
C        1.96314506      -0.00015697       0.00260008      -0.80728856      -0.80121875      -0.02535938      -0.80728856      -0.80121875      -0.02535938
H       -2.53715425       0.64410937       0.65422150       0.22368873       0.56631797      -0.59803275       0.22368873       0.56631797      -0.59803275
H       -2.52738241      -0.64621138      -0.67142508       0.14935831      -0.44350082       0.72625950       0.14935831      -0.44350082       0.72625950
H        2.52120004      -0.94058102      -0.00603690      -0.10169107       0.29982185      -0.79312263      -0.10169107       0.29982185      -0.79312263
H        2.50849977       0.91882076       0.00335886       0.33176903       0.46471655       0.84293660       0.33176903       0.46471655       0.84293660
8
Properties=species:S:1:pos:R:3:orca_vtscf_forces:R:3:forces:R:3 nC=4 origin=geom-opt-rotated angle=49.56 phi=229.56 orca_vtscf_energy=-4209.645115701022 config_type=in-domain energy=-4209.645115701022 dataset=GNL-v0.2 pbc="F F F"
C       -1.94794524       0.01231183       0.00822313      -0.48975421      -0.73086766      -0.78970040      -0.48975421      -0.73086766      -0.78970040
C       -0.64635728       0.00411371      -0.00183179       1.81294641       0.02420637       0.05471094       1.81294641       0.02420637       0.05471094
C        0.63763328      -0.00564210      -0.00100118      -0.34379615      -0.02794154      -0.02553671      -0.34379615      -0.02794154      -0.02553671
C        1.96236701      -0.00862236       0.00016894      -0.72556904      -0.57870463      -0.04279082      -0.72556904      -0.57870463      -0.04279082
H       -2.50677000       0.59537180       0.70017583      -0.39841621       1.15334971      -0.07645578      -0.39841621       1.15334971      -0.07645578
H       -2.51426522      -0.59933673      -0.70505015       0.16454677      -0.46026239       0.83375617       0.16454677      -0.46026239       0.83375617
H        2.53865268      -0.93847771      -0.00131878      -0.23289879       0.22265627      -0.88201957      -0.23289879       0.22265627      -0.88201957
H        2.51765449       0.90914796      -0.00865705       0.21525356       0.39775966       0.92809000       0.21525356       0.39775966       0.92809000
8
Properties=species:S:1:pos:R:3:orca_vtscf_forces:R:3:forces:R:3 nC=4 origin=geom-opt-rotated angle=85.56 phi=265.56 orca_vtscf_energy=-4208.294580534563 config_type=in-domain energy=-4208.294580534563 dataset=GNL-v0.2 pbc="F F F"
C       -1.96139586      -0.02101597      -0.00809344       0.01666176       0.14015092       0.30673768       0.01666176       0.14015092       0.30673768
C       -0.63844017      -0.01705043       0.00574382       0.08242674      -0.01762141      -0.05848502       0.08242674      -0.01762141      -0.05848502
C        0.62867356      -0.01479444      -0.00529995       0.77983439       0.05339530       0.03392225       0.77983439       0.05339530       0.03392225
C        1.96646465       0.00172400      -0.01226744      -1.10022293      -0.19651395       0.05015704      -1.10022293      -0.19651395       0.05015704
H       -2.52952941       0.08155635       0.90919526      -0.05311890       1.43304452      -0.08219680      -0.05311890       1.43304452      -0.08219680
H       -2.51256202      -0.07639517      -0.92975476      -0.23736637      -1.55783283      -0.21193109      -0.23736637      -1.55783283      -0.21193109
H        2.53766680      -0.90402381      -0.00606996       0.23690109      -0.53134462      -1.53919018       0.23690109      -0.53134462      -1.53919018
H        2.52612146       0.90896528       0.00103395       0.27629481       0.67726050       1.50073439       0.27629481       0.67726050       1.50073439
9
Properties=species:S:1:pos:R:3:orca_vtscf_forces:R:3:forces:R:3 nC=5 origin=geom-opt-rotated angle=23.88 phi=113.88 orca_vtscf_energy=-5246.249942802939 config_type=in-domain energy=-5246.249942802939 dataset=GNL-v0.2 pbc="F F F"
C       -2.58317667       0.00144703      -0.01115220       0.00373394       0.02900975      -0.08462736       0.00373394       0.02900975      -0.08462736
C       -1.26935942      -0.00156498      -0.00599773      -0.71681988       0.12832569      -0.13654725      -0.71681988       0.12832569      -0.13654725
C        0.00349003       0.01217501      -0.00830021      -0.44099118      -0.07770530      -0.01601449      -0.44099118      -0.07770530      -0.01601449
C        1.27055952      -0.00525929      -0.01094158       0.75444053      -0.07186914       0.06793054       0.75444053      -0.07186914       0.06793054
C        2.57810776      -0.01684510       0.00692368       0.62493047       0.51874232      -0.11802458       0.62493047       0.51874232      -0.11802458
H       -3.18546472       0.36721082      -0.85702145       0.49553745      -0.45786387       0.20923937       0.49553745      -0.45786387       0.20923937
H       -3.14371390      -0.37029396       0.84770080       0.17227041       0.36453931       0.00328841       0.17227041       0.36453931       0.00328841
H        3.16685765      -0.94272675      -0.01144678      -0.37234856       0.32623436      -0.29118521      -0.37234856       0.32623436      -0.29118521
H        3.15570351       0.93483371       0.00535122      -0.52398844      -0.75828252       0.36525350      -0.52398844      -0.75828252       0.36525350
9
Properties=species:S:1:pos:R:3:orca_vtscf_forces:R:3:forces:R:3 nC=5 origin=geom-opt-rotated angle=26.88 phi=116.88 orca_vtscf_energy=-5246.189113582522 config_type=in-domain energy=-5246.189113582522 dataset=GNL-v0.2 pbc="F F F"
C       -2.60390665       0.00200455      -0.01540315       1.47572531      -0.13249853       0.47283546       1.47572531      -0.13249853       0.47283546
C       -1.27328947       0.00392946       0.00181098      -1.18280157      -0.00041203      -0.13333469      -1.18280157      -0.00041203      -0.13333469
C        0.00404570       0.00458453       0.00033722       0.23052156       0.00024920       0.00765263       0.23052156       0.00024920       0.00765263
C        1.28626034       0.00613283       0.00009043      -0.05324049       0.06914922      -0.00387310      -0.05324049       0.06914922      -0.00387310
C        2.59906472       0.01402076      -0.00408709      -0.31441998      -0.44194387       0.08506991      -0.31441998      -0.44194387       0.08506991
H       -3.16585391       0.43775913      -0.82272200      -0.02716717      -0.24643658      -0.46315996      -0.02716717      -0.24643658      -0.46315996
H       -3.16664960      -0.42114385       0.81369058       0.11915005       0.37340840       0.10077912       0.11915005       0.37340840       0.10077912
H        3.16330116      -0.92410298       0.01649783      -0.20640268       0.28276665      -0.44436602      -0.20640268       0.28276665      -0.44436602
H        3.16775513       0.93452647       0.00010358      -0.04503040       0.09533380       0.37821549      -0.04503040       0.09533380       0.37821549
9
Properties=species:S:1:pos:R:3:orca_vtscf_forces:R:3:forces:R:3 nC=5 origin=geom-opt-rotated angle=41.88 phi=131.88 orca_vtscf_energy=-5245.96492966717 config_type=in-domain energy=-5245.96492966717 dataset=GNL-v0.2 pbc="F F F"
C       -2.58869376       0.02131620       0.02440259      -0.25723316      -0.01154648      -0.51251590      -0.25723316      -0.01154648      -0.51251590
C       -1.27903662      -0.01497960      -0.00038122       0.39034141       0.15777753       0.03332582       0.39034141       0.15777753       0.03332582
C        0.00430707      -0.01532563      -0.00731571       0.28179956       0.08918989      -0.05304205       0.28179956       0.08918989      -0.05304205
C        1.29218326       0.01618154      -0.01605749      -0.96898244      -0.22669861       0.11679723      -0.96898244      -0.22669861       0.11679723
C        2.59777121      -0.00210441       0.00298216       0.28077498       0.41155798      -0.10384111       0.28077498       0.41155798      -0.10384111
H       -3.17303980       0.62374687      -0.69289473       0.45369959      -0.69070922       0.04898561       0.45369959      -0.69070922       0.04898561
H       -3.16118472      -0.62319216       0.68912282       0.13243434       0.56567321       0.42826142       0.13243434       0.56567321       0.42826142
H        3.16112234      -0.93191322      -0.00819208      -0.10469956       0.07626681      -0.57901206      -0.10469956       0.07626681      -0.57901206
H        3.16664555       0.93626695       0.00145660      -0.20641078      -0.37170582       0.62026469      -0.20641078      -0.37170582       0.62026469
9
Properties=species:S:1:pos:R:3:orca_vtscf_forces:R:3:forces:R:3 nC=5 origin=geom-opt-rotated angle=47.88 phi=137.88 orca_vtscf_energy=-5245.822085504216 config_type=in-domain energy=-5245.822085504216 dataset=GNL-v0.2 pbc="F F F"
C       -2.60155691       0.00113205       0.00477061       1.80024954       0.36702900      -0.44766056       1.80024954       0.36702900      -0.44766056
C       -1.26231008       0.00448575      -0.01190234      -2.09311951      -0.03581409       0.16202016      -2.09311951      -0.03581409       0.16202016
C        0.00613642      -0.00181231       0.01345210       0.98365430       0.02701119      -0.09934579       0.98365430       0.02701119      -0.09934579
C        1.29328161       0.00199168       0.00509080      -1.50128214      -0.07255241       0.03882466      -1.50128214      -0.07255241       0.03882466
C        2.58681943      -0.00837862       0.00584463       0.84399617       0.85678294       0.00071903       0.84399617       0.85678294       0.00071903
H       -3.16978882       0.67942495      -0.62999622       0.14567981      -0.55171343      -0.40484876       0.14567981      -0.55171343      -0.40484876
H       -3.15440318      -0.67647116       0.62720784      -0.10250647       0.21611717       0.75742191      -0.10250647       0.21611717       0.75742191
H        3.15054073      -0.92031707       0.01171806       0.18645067      -0.41943120      -0.68966293       0.18645067      -0.41943120      -0.68966293
H        3.15845600       0.93091980      -0.00147641      -0.26095416      -0.38718538       0.68279025      -0.26095416      -0.38718538       0.68279025
9
Properties=species:S:1:pos:R:3:orca_vtscf_forces:R:3:forces:R:3 nC=5 origin=geom-opt-rotated angle=56.88 phi=146.88 orca_vtscf_energy=-5245.646015952012 config_type=in-domain energy=-5245.646015952012 dataset=GNL-v0.2 pbc="F F F"
C       -2.59324143      -0.00304207       0.00578014       0.50807644       0.69936683      -0.50737104       0.50807644       0.69936683      -0.50737104
C       -1.27591734      -0.00062628       0.00503876      -0.85639252      -0.00507250       0.01248423      -0.85639252      -0.00507250       0.01248423
C       -0.00517548       0.00673359      -0.00019466       0.59490720      -0.01227155       0.00707239       0.59490720      -0.01227155       0.00707239
C        1.27517379       0.00628990       0.00224321      -0.04663810       0.05899734       0.07098874      -0.04663810       0.05899734       0.07098874
C        2.58569543       0.00829034       0.02092885       0.21383418      -0.75689754      -0.18992584       0.21383418      -0.75689754      -0.18992584
H       -3.15927898       0.78226980      -0.50967349       0.27691893      -0.68746849      -0.49184926       0.27691893      -0.68746849      -0.49184926
H       -3.15999347      -0.76536149       0.49520505      -0.21397581      -0.00344282       0.97640223      -0.21397581      -0.00344282       0.97640223
H        3.15822519      -0.93728463      -0.01243722      -0.42106472       0.56179426      -0.72929536      -0.42106472       0.56179426      -0.72929536
H        3.16744891       0.92007209       0.01951007      -0.05656692       0.14435741       0.85073724      -0.05656692       0.14435741       0.85073724
10
Properties=species:S:1:pos:R:3:orca_vtscf_forces:R:3:forces:R:3 nC=6 origin=geom-opt-rotated angle=2.88 phi=182.88 orca_vtscf_energy=-6282.316160135669 config_type=in-domain energy=-6282.316160135669 dataset=GNL-v0.2 pbc="F F F"
C       -3.23972897      -0.00227384      -0.00592099      -0.01867766       1.05276976       0.09301213      -0.01867766       1.05276976       0.09301213
C       -1.93015838       0.01189629      -0.01366257       1.54632818      -0.17087049       0.20221811       1.54632818      -0.17087049       0.20221811
C       -0.63710854      -0.01326162       0.01857111      -0.87047165       0.07134568      -0.26292532      -0.87047165       0.07134568      -0.26292532
C        0.65679070      -0.01354678      -0.00739853      -0.94159362      -0.00679454       0.11131368      -0.94159362      -0.00679454       0.11131368
C        1.92450665      -0.01362374       0.00013938       1.19626907       0.16588888       0.00843915       1.19626907       0.16588888       0.00843915
C        3.25057954       0.01082215       0.00781249      -0.98928605      -0.40824553      -0.08114301      -0.98928605      -0.40824553      -0.08114301
H       -3.81798904       0.93995868       0.05074832       0.42320558      -0.58572437      -0.10803572       0.42320558      -0.58572437      -0.10803572
H       -3.80454938      -0.91466228      -0.03160606      -0.11124595      -0.37998191      -0.01706157      -0.11124595      -0.37998191      -0.01706157
H        3.82187521      -0.91651882      -0.00145343      -0.13591898       0.11090642      -0.00222669      -0.13591898       0.11090642      -0.00222669
H        3.81767105       0.93135165       0.00060533      -0.09827161       0.15135730       0.05638477      -0.09827161       0.15135730       0.05638477
10
Properties=species:S:1:pos:R:3:orca_vtscf_forces:R:3:forces:R:3 nC=6 origin=geom-opt-rotated angle=11.88 phi=191.88 orca_vtscf_energy=-6282.298984898754 config_type=in-domain energy=-6282.298984898754 dataset=GNL-v0.2 pbc="F F F"
C       -3.22118212       0.01100876       0.02061530      -0.76061076      -0.32961917      -0.27732896      -0.76061076      -0.32961917      -0.27732896
C       -1.91752594       0.01651583       0.00258862       0.21203395      -0.14497232       0.06150147       0.21203395      -0.14497232       0.06150147
C       -0.64894974      -0.01464583      -0.00305150       1.50493466       0.23644415       0.01162352       1.50493466       0.23644415       0.01162352
C        0.65548382       0.01924496      -0.00252889      -0.61013672      -0.16394505      -0.10387362      -0.61013672      -0.16394505      -0.10387362
C        1.93581377       0.01652060      -0.01946102      -0.48333689      -0.07835034       0.17641284      -0.48333689      -0.07835034       0.17641284
C        3.25168247       0.00589191       0.00623733      -0.67391071      -0.33434693      -0.17020026      -0.67391071      -0.33434693      -0.17020026
H       -3.80724853       0.90697175       0.18885362       0.16652108       0.17123507      -0.04580640       0.16652108       0.17123507      -0.04580640
H       -3.82296049      -0.88436221      -0.19366114       0.49059410       0.21836487       0.26979936       0.49059410       0.21836487       0.26979936
H        3.80031440      -0.93768506      -0.00938638      -0.08422105       0.27887962      -0.10412961      -0.08422105       0.27887962      -0.10412961
H        3.79353168       0.93659467       0.00180858       0.23930405       0.14673381       0.18191759       0.23930405       0.14673381       0.18191759
10
Properties=species:S:1:pos:R:3:orca_vtscf_forces:R:3:forces:R:3 nC=6 origin=geom-opt-rotated angle=26.88 phi=206.88 orca_vtscf_energy=-6282.184594252045 config_type=in-domain energy=-6282.184594252045 dataset=GNL-v0.2 pbc="F F F"
C       -3.23274693       0.01637743       0.00997842      -0.72411342      -0.49493146      -0.20998215      -0.72411342      -0.49493146      -0.20998215
C       -1.92924017      -0.01042688      -0.00006176       0.35057559       0.18798151       0.03185628       0.35057559       0.18798151       0.03185628
C       -0.65925498      -0.01580533      -0.00617751       1.19816022       0.01628487      -0.02275910       1.19816022       0.01628487      -0.02275910
C        0.64191387      -0.01187063      -0.01755111      -0.50987788      -0.01028445       0.18865902      -0.50987788      -0.01028445       0.18865902
C        1.92044440       0.00358436       0.01690248      -0.62564236      -0.07742630      -0.21149374      -0.62564236      -0.07742630      -0.21149374
C        3.23021805      -0.00071799       0.00541587       0.07745463       0.43462705       0.06139574       0.07745463       0.43462705       0.06139574
H       -3.81675040       0.83595611       0.42386484       0.24522346       0.13685592      -0.32414542       0.24522346       0.13685592      -0.32414542
H       -3.80866049      -0.82163033      -0.40922546       0.27858675       0.19237826       0.48083446       0.27858675       0.19237826       0.48083446
H        3.80740170      -0.91235957       0.02447429      -0.04362993      -0.26022729      -0.34981198      -0.04362993      -0.26022729      -0.34981198
H        3.81037600       0.92436563      -0.01263752      -0.24955806      -0.12430979       0.35567772      -0.24955806      -0.12430979       0.35567772
10
Properties=species:S:1:pos:R:3:orca_vtscf_forces:R:3:forces:R:3 nC=6 origin=geom-opt-rotated angle=65.88 phi=245.88 orca_vtscf_energy=-6281.496502662867 config_type=in-domain energy=-6281.496502662867 dataset=GNL-v0.2 pbc="F F F"
C       -3.24882248       0.00384459       0.01495854       1.03553410      -0.60015784      -1.21908409       1.03553410      -0.60015784      -1.21908409
C       -1.92571992      -0.00788014      -0.00459801       0.08825887       0.10009079       0.10491000       0.08825887       0.10009079       0.10491000
C       -0.64490979      -0.00354774      -0.00735343      -1.32226727      -0.01019870       0.01533530      -1.32226727      -0.01019870       0.01533530
C        0.63247950       0.00238474      -0.00589300       0.94206789      -0.00181740      -0.04607380       0.94206789      -0.00181740      -0.04607380
C        1.90776005       0.00773563      -0.01027905       0.68909570      -0.02991142       0.07211955       0.68909570      -0.02991142       0.07211955
C        3.23657404       0.00492143       0.00423972      -0.89223230      -0.09399010      -0.06625622      -0.89223230      -0.09399010      -0.06625622
H       -3.79255447       0.38132415       0.84066213      -0.47993944       1.08053736       0.42593630      -0.47993944       1.08053736       0.42593630
H       -3.80607272      -0.38771047      -0.84584699       0.14915578      -0.55451683       0.69134702       0.14915578      -0.55451683       0.69134702
H        3.81109670      -0.91637249      -0.01669661      -0.13982296      -0.02349478      -0.79201768      -0.13982296      -0.02349478      -0.79201768
H        3.81021418       0.92242759       0.02394370      -0.07202201       0.13343301       0.81400384      -0.07202201       0.13343301       0.81400384
10
Properties=species:S:1:pos:R:3:orca_vtscf_forces:R:3:forces:R:3 nC=6 origin=geom-opt-rotated angle=86.88 phi=266.88 orca_vtscf_energy=-6280.772716713531 config_type=in-domain energy=-6280.772716713531 dataset=GNL-v0.2 pbc="F F F"
C       -3.23633762       0.00641413       0.00548658      -0.15034445      -0.05974955      -0.73763894      -0.15034445      -0.05974955      -0.73763894
C       -1.92039126       0.00203612      -0.01047951       1.64288227       0.04823835       0.20651134       1.64288227       0.04823835       0.20651134