7
Properties=species:S:1:pos:R:3:orca_vtscf_forces:R:3:forces:R:3 nC=3 origin=geom-opt-rotated angle=3.71 phi=93.71 orca_vtscf_energy=-3174.430700848959 config_type=in-domain energy=-3174.430700848959 dataset=GNL-v0.2 pbc="F F F"
C       -1.29242940      -0.00611842      -0.00528272      -2.05036663       0.14219039      -0.13296091      -2.05036663       0.14219039      -0.13296091
C       -0.01072954       0.00865322      -0.02301539       3.27120646      -0.18130783       0.25712721       3.27120646      -0.18130783       0.25712721
C        1.32612126      -0.00761293       0.00318939      -2.44441635       0.83033486      -0.20055639      -2.44441635       0.83033486      -0.20055639
H       -1.87779385       0.07451460      -0.94449645       0.44446320      -0.18894158       0.66115609       0.44446320      -0.18894158       0.66115609
H       -1.87852774      -0.06372981       0.93522926       0.54020466       0.11189551      -0.65193369       0.54020466       0.11189551      -0.65193369
H        1.86430252      -0.92755757      -0.00877565       0.29569565      -0.52248209      -0.07111547       0.29569565      -0.52248209      -0.07111547
H        1.87572399       0.93165986      -0.01100326      -0.05693222      -0.19153610       0.13753098      -0.05693222      -0.19153610       0.13753098
7
Properties=species:S:1:pos:R:3:orca_vtscf_forces:R:3:forces:R:3 nC=3 origin=geom-opt-rotated angle=6.71 phi=96.71 orca_vtscf_energy=-3174.433356189886 config_type=in-domain energy=-3174.433356189886 dataset=GNL-v0.2 pbc="F F F"
C       -1.31284044      -0.00056353      -0.02136296       1.91163614      -0.28535220       1.85207195       1.91163614      -0.28535220       1.85207195
C        0.01640285      -0.01793521      -0.00841747      -2.00317969       0.11428295      -0.19980677      -2.00317969       0.11428295      -0.19980677
C        1.31370196      -0.01245374      -0.01058052      -0.08085861       0.56837274       0.09136906      -0.08085861       0.56837274       0.09136906
H       -1.88439023       0.11367886      -0.89657217      -0.46212680      -0.04415804      -1.13081505      -0.46212680      -0.04415804      -1.13081505
H       -1.87488817      -0.11933924       0.92488167       0.45522375       0.26165499      -0.57259859       0.45522375       0.26165499      -0.57259859
H        1.86933984      -0.92602460       0.01175295       0.28528841      -0.44045800      -0.20019351       0.28528841      -0.44045800      -0.20019351
H        1.86782314       0.92592196      -0.00877815      -0.10521220      -0.17398122       0.16081758      -0.10521220      -0.17398122       0.16081758
7
Properties=species:S:1:pos:R:3:orca_vtscf_forces:R:3:forces:R:3 nC=3 origin=geom-opt-rotated angle=12.71 phi=102.71 orca_vtscf_energy=-3174.433292852174 config_type=in-domain energy=-3174.433292852174 dataset=GNL-v0.2 pbc="F F F"
C       -1.30816724       0.00499866      -0.00996009       0.80677504      -0.03189160      -0.08146553       0.80677504      -0.03189160      -0.08146553
C        0.00693613      -0.00418387      -0.01584577      -1.21649093       0.13688220       0.07206060      -1.21649093       0.13688220       0.07206060
C        1.30219608       0.00598489       0.00332150       0.73639455      -0.47241418      -0.06671012       0.73639455      -0.47241418      -0.06671012
H       -1.88677492       0.20987169      -0.90403070       0.13605849      -0.30007698      -0.11210540       0.13605849      -0.30007698      -0.11210540
H       -1.87105284      -0.20035804       0.89158014       0.08319237       0.29000117       0.16608357       0.08319237       0.29000117       0.16608357
H        1.87881141      -0.93190216       0.01547273      -0.34367273       0.42796691      -0.31209410      -0.34367273       0.42796691      -0.31209410
H        1.88253527       0.92629307      -0.00982698      -0.20161291      -0.05118276       0.33358406      -0.20161291      -0.05118276       0.33358406
7
Properties=species:S:1:pos:R:3:orca_vtscf_forces:R:3:forces:R:3 nC=3 origin=geom-opt-rotated angle=15.71 phi=105.71 orca_vtscf_energy=-3174.3873263112087 config_type=in-domain energy=-3174.3873263112087 dataset=GNL-v0.2 pbc="F F F"
C       -1.30426058      -0.00330956       0.02430671       0.13946241       0.40539359      -1.67448356       0.13946241       0.40539359      -1.67448356
C       -0.00252078       0.00109524       0.01582481      -0.01655140      -0.11292203       0.04242714      -0.01655140      -0.11292203       0.04242714
C        1.29958082      -0.00591722       0.00187503      -0.13950541       0.74135362       0.05077962      -0.13950541       0.74135362       0.05077962
H       -1.87859885       0.23874541      -0.89330177       0.50456219      -0.49938441       0.50658060       0.50456219      -0.49938441       0.50658060
H       -1.87889185      -0.24463391       0.87460291      -0.45098838       0.11506160       1.10599081      -0.45098838       0.11506160       1.10599081
H        1.86829965      -0.91431938       0.01857624       0.13457184      -0.41354155      -0.39656024       0.13457184      -0.41354155      -0.39656024
H        1.86019005       0.93228019      -0.00980315      -0.17204549      -0.23505388       0.36548328      -0.17204549      -0.23505388       0.36548328
7
Properties=species:S:1:pos:R:3:orca_vtscf_forces:R:3:forces:R:3 nC=3 origin=geom-opt-rotated angle=18.71 phi=108.71 orca_vtscf_energy=-3174.3440013215004 config_type=in-domain energy=-3174.3440013215004 dataset=GNL-v0.2 pbc="F F F"
C       -1.31179069       0.00728918       0.00217721       0.09500936      -0.01688492      -0.04845635       0.09500936      -0.01688492      -0.04845635
C       -0.00899078      -0.02486866       0.00913252       1.50466108       0.19946395      -0.04161286       1.50466108       0.19946395      -0.04161286
C        1.31994378      -0.01514179       0.01639191      -1.67443057       0.92857653      -0.09634787      -1.67443057       0.92857653      -0.09634787
H       -1.87959909       0.32328685      -0.87089409       0.16363646      -0.45572613      -0.07063210       0.16363646      -0.45572613      -0.07063210
H       -1.87866238      -0.28459223       0.87802171       0.01672989       0.39093851       0.18539377       0.01672989       0.39093851       0.18539377
H        1.87659295      -0.92507201      -0.00154835       0.28822907      -0.51998513      -0.41014750       0.28822907      -0.51998513      -0.41014750
H        1.88164410       0.93393826       0.00355102      -0.39702044      -0.52729879       0.48185749      -0.39702044      -0.52729879       0.48185749
7
Properties=species:S:1:pos:R:3:orca_vtscf_forces:R:3:forces:R:3 nC=3 origin=geom-opt-rotated angle=24.71 phi=114.71 orca_vtscf_energy=-3174.1718491449183 config_type=in-domain energy=-3174.1718491449183 dataset=GNL-v0.2 pbc="F F F"
C       -1.30776081       0.01091197      -0.01947070      -0.02934051      -1.07990298       2.16984110      -0.02934051      -1.07990298       2.16984110
C       -0.01386335      -0.02296577       0.02409834       2.58840507       0.58597109      -0.35551384       2.58840507       0.58597109      -0.35551384
C        1.32595150       0.02204471       0.00794728      -2.78088739      -1.37109521       0.06400696      -2.78088739      -1.37109521       0.06400696
H       -1.86553594       0.37517511      -0.82190254      -0.66122768       0.08488727      -1.56833046      -0.66122768       0.08488727      -1.56833046
H       -1.88653683      -0.39364534       0.83728134       0.39296615       0.79525778      -0.35057090       0.39296615       0.79525778      -0.35057090
H        1.86738528      -0.91723781      -0.00230496       0.08353730       0.05451191      -0.54996462       0.08353730       0.05451191      -0.54996462
H        1.87464524       0.92374535       0.01347162       0.40165120       0.92871278       0.59011615       0.40165120       0.92871278       0.59011615
7
Properties=species:S:1:pos:R:3:orca_vtscf_forces:R:3:forces:R:3 nC=3 origin=geom-opt-rotated angle=30.71 phi=120.71 orca_vtscf_energy=-3174.1222739999275 config_type=in-domain energy=-3174.1222739999275 dataset=GNL-v0.2 pbc="F F F"
C       -1.29535699       0.00715193      -0.01545500      -0.80178667      -0.46253487       0.98306755      -0.80178667      -0.46253487       0.98306755
C       -0.00008370       0.00621250      -0.00720086       0.97419230       0.00408898      -0.02350090       0.97419230       0.00408898      -0.02350090
C        1.31132826       0.00108463       0.00004191      -0.27714848      -0.45907671      -0.07791942      -0.27714848      -0.45907671      -0.07791942
H       -1.87704615       0.47713481      -0.78397477      -0.08228313      -0.41309139      -0.79722540      -0.08228313      -0.41309139      -0.79722540
H       -1.88495422      -0.46251752       0.79829084       0.54633586       0.88532454      -0.14333794       0.54633586       0.88532454      -0.14333794
H        1.87975281      -0.93719931       0.00135430      -0.30424937       0.31419296      -0.70005329      -0.30424937       0.31419296      -0.70005329
H        1.89014722       0.91503366      -0.01977435      -0.05722456       0.13057278       0.75788712      -0.05722456       0.13057278       0.75788712
7
Properties=species:S:1:pos:R:3:orca_vtscf_forces:R:3:forces:R:3 nC=3 origin=geom-opt-rotated angle=33.71 phi=123.71 orca_vtscf_energy=-3174.0144653147827 config_type=in-domain energy=-3174.0144653147827 dataset=GNL-v0.2 pbc="F F F"
C       -1.29117831      -0.00286159      -0.00484665      -2.94115951       0.21831688      -0.36589128      -2.94115951       0.21831688      -0.36589128
C       -0.02653304      -0.00008370      -0.00319631       4.21718042       0.06905668       0.00362860       4.21718042       0.06905668       0.00362860
C        1.30330685       0.00315317       0.00420951      -1.56314824      -0.03159384       0.01472461      -1.56314824      -0.03159384       0.01472461
H       -1.88595618       0.50495382      -0.77492686       0.33271080      -0.79154737      -0.22384353       0.33271080      -0.79154737      -0.22384353
H       -1.86840674      -0.50820010       0.75711374       0.00099194       0.55331887       0.60351780       0.00099194       0.55331887       0.60351780
H        1.86410668      -0.91846492       0.01574927       0.01387641      -0.20846555      -0.80633089       0.01387641      -0.20846555      -0.80633089
H        1.87499110       0.91899724       0.01095923      -0.06106512       0.19030716       0.77462130      -0.06106512       0.19030716       0.77462130
7
Properties=species:S:1:pos:R:3:orca_vtscf_forces:R:3:forces:R:3 nC=3 origin=geom-opt-rotated angle=39.71 phi=129.71 orca_vtscf_energy=-3173.895040751758 config_type=in-domain energy=-3173.895040751758 dataset=GNL-v0.2 pbc="F F F"
C       -1.31579676       0.00753681      -0.00044603       0.86535276      -0.11222310       0.10983685       0.86535276      -0.11222310       0.10983685
C        0.00451827       0.01345016       0.00532338      -0.16909893      -0.02108966      -0.02768936      -0.16909893      -0.02108966      -0.02768936
C        1.32217502       0.00861126       0.01478586      -1.00075566      -0.34670807      -0.07476065      -1.00075566      -0.34670807      -0.07476065
H       -1.88575392       0.58361612      -0.72485801       0.10433061      -0.73478406      -0.50002296       0.10433061      -0.73478406      -0.50002296
H       -1.86967510      -0.59393528       0.72137967       0.09075291       0.83669018       0.44166824       0.09075291       0.83669018       0.44166824
H        1.87847494      -0.92456026       0.02150676      -0.06257666       0.03985174      -0.88648126      -0.06257666       0.03985174      -0.88648126
H        1.88136474       0.92556399      -0.00983867       0.17366863       0.33724741       0.93750310       0.17366863       0.33724741       0.93750310
7
Properties=species:S:1:pos:R:3:orca_vtscf_forces:R:3:forces:R:3 nC=3 origin=geom-opt-rotated angle=42.71 phi=132.71 orca_vtscf_energy=-3173.7981899292317 config_type=in-domain energy=-3173.7981899292317 dataset=GNL-v0.2 pbc="F F F"
C       -1.29315947       0.00079100       0.00173877      -1.13735060      -0.18753769       0.11461772      -1.13735060      -0.18753769       0.11461772
C       -0.00072322      -0.02004415       0.00144678       0.13907398       0.19754957       0.01064460       0.13907398       0.19754957       0.01064460
C        1.29366146       0.00211024      -0.00558305       0.80872924      -0.64880976       0.02591146       0.80872924      -0.64880976       0.02591146
H       -1.86445486       0.62610829      -0.68016216       0.12840193      -0.74169976      -0.67535320       0.12840193      -0.74169976      -0.67535320
H       -1.88605926      -0.62154480       0.67850601       0.25730250       0.86202054       0.54222993       0.25730250       0.86202054       0.54222993
H        1.88150444      -0.91772355       0.00778229      -0.21238669       0.07406859      -1.02587330      -0.21238669       0.07406859      -1.02587330
H        1.87292695       0.90691259      -0.01171828       0.01936390       0.44450043       1.00745803       0.01936390       0.44450043       1.00745803
7
Properties=species:S:1:pos:R:3:orca_vtscf_forces:R:3:forces:R:3 nC=3 origin=geom-opt-rotated angle=48.71 phi=138.71 orca_vtscf_energy=-3173.619399193335 config_type=in-domain energy=-3173.619399193335 dataset=GNL-v0.2 pbc="F F F"
C       -1.30739337      -0.01528559      -0.00594568      -0.03034883      -0.05700867       0.10171342      -0.03034883      -0.05700867       0.10171342
C        0.00066345      -0.01235581      -0.00621369      -0.51057703       0.01029711       0.02209367      -0.51057703       0.01029711       0.02209367
C        1.29978366       0.00498824      -0.00786997       1.09776421      -0.12254484      -0.00527786       1.09776421      -0.12254484      -0.00527786
H       -1.87411271       0.68807398      -0.60600735       0.02509026      -0.70431426      -0.89702613       0.02509026      -0.70431426      -0.89702613
H       -1.88369761      -0.70578927       0.60751700       0.14721822       0.76795322       0.76922753       0.14721822       0.76795322       0.76922753
H        1.89414608      -0.92854242      -0.01451426      -0.41094611       0.58262328      -1.08211758      -0.41094611       0.58262328      -1.08211758
H        1.86450026       0.95148248      -0.00219929      -0.31568273      -0.47569206       1.09132708      -0.31568273      -0.47569206       1.09132708
7
Properties=species:S:1:pos:R:3:orca_vtscf_forces:R:3:forces:R:3 nC=3 origin=geom-opt-rotated angle=51.71 phi=141.71 orca_vtscf_energy=-3173.4558714370046 config_type=in-domain energy=-3173.4558714370046 dataset=GNL-v0.2 pbc="F F F"
C       -1.30591020      -0.01854714       0.00623801       0.05530998       0.78419233      -0.38370005       0.05530998       0.78419233      -0.38370005
C        0.01145326       0.01037105       0.01886639      -1.40688777      -0.26087748      -0.04099119      -1.40688777      -0.26087748      -0.04099119
C        1.30755616      -0.00362187       0.00148575       0.16237200       0.73676197       0.03122489       0.16237200       0.73676197       0.03122489
H       -1.87967798       0.74837596      -0.56217348       0.50112715      -1.32114392      -0.52789185       0.50112715      -1.32114392      -0.52789185
H       -1.89349169      -0.72804049       0.57909643       0.13317401       0.66933576       0.92924231       0.13317401       0.66933576       0.92924231
H        1.85754861      -0.91268452      -0.00473155       0.40697919      -0.72284272      -1.20150190       0.40697919      -0.72284272      -1.20150190
H        1.86437955       0.92333144      -0.00982001       0.14945472       0.11424473       1.19294583       0.14945472       0.11424473       1.19294583
7
Properties=species:S:1:pos:R:3:orca_vtscf_forces:R:3:forces:R:3 nC=3 origin=geom-opt-rotated angle=60.71 phi=150.71 orca_vtscf_energy=-3173.0440433661793 config_type=in-domain energy=-3173.0440433661793 dataset=GNL-v0.2 pbc="F F F"
C       -1.29983393       0.00195779       0.00357437      -2.40987677      -0.10322505      -0.02502363      -2.40987677      -0.10322505      -0.02502363
C       -0.02343248      -0.01084918       0.00559696       3.80151784       0.05069421      -0.00905302       3.80151784       0.05069421      -0.00905302
C        1.31806784      -0.00978567       0.00502997      -1.55120237       0.66829572       0.03551834      -1.55120237       0.66829572       0.03551834
H       -1.87123600       0.81069731      -0.45789222       0.13890335      -0.77906545      -1.08383344       0.13890335      -0.77906545      -1.08383344
H       -1.88322373      -0.81588360       0.44016529       0.15068474       0.85966667       1.10067901       0.15068474       0.85966667       1.10067901
H        1.87775859      -0.92627524       0.01567926       0.15628532      -0.35930122      -1.36184018       0.15628532      -0.35930122      -1.36184018
H        1.88581294       0.92989539      -0.00168353      -0.28805584      -0.33622070       1.34349573      -0.28805584      -0.33622070       1.34349573
7
Properties=species:S:1:pos:R:3:orca_vtscf_forces:R:3:forces:R:3 nC=3 origin=geom-opt-rotated angle=66.71 phi=156.71 orca_vtscf_energy=-3172.856372353749 config_type=in-domain energy=-3172.856372353749 dataset=GNL-v0.2 pbc="F F F"
C       -1.30959236      -0.01463436       0.01081692      -0.01581843       1.35920134      -0.73959917      -0.01581843       1.35920134      -0.73959917
C       -0.00239311      -0.00491215      -0.01002272       0.75158074      -0.10252583       0.18677880       0.75158074      -0.10252583       0.18677880
C        1.31786136      -0.01103718       0.00626393      -0.65237465       0.47955889      -0.02723834      -0.65237465       0.47955889      -0.02723834
H       -1.88091529       0.85067480      -0.36838151       0.29319478      -0.99779105      -1.10223845       0.29319478      -0.99779105      -1.10223845
H       -1.86942604      -0.84286075       0.35549146      -0.49114356      -0.27940797       1.72521656      -0.49114356      -0.27940797       1.72521656
H        1.88586116      -0.91835579       0.01064970       0.20992746      -0.52413403      -1.47749977       0.20992746      -0.52413403      -1.47749977
H        1.89050315       0.91094568       0.01860283      -0.09725412       0.06494582       1.43502046      -0.09725412       0.06494582       1.43502046
7
Properties=species:S:1:pos:R:3:orca_vtscf_forces:R:3:forces:R:3 nC=3 origin=geom-opt-rotated angle=69.71 phi=159.71 orca_vtscf_energy=-3172.6776994574125 config_type=in-domain energy=-3172.6776994574125 dataset=GNL-v0.2 pbc="F F F"
C       -1.30200298       0.00025727      -0.00777719       0.05137099      -0.26586347       0.13497464       0.05137099      -0.26586347       0.13497464
C        0.00948648       0.00701586      -0.01051082      -0.97324415      -0.20715247      -0.01054649      -0.97324415      -0.20715247      -0.01054649
C        1.30499766      -0.01137545      -0.01322248       0.61927270       0.47042138       0.07558077       0.61927270       0.47042138       0.07558077
H       -1.85757757       0.86490500      -0.31436492      -0.26897133      -0.12739818      -1.57783463      -0.26897133      -0.12739818      -1.57783463
H       -1.87208085      -0.86777409       0.31063468       0.06817587       0.49957727       1.41842219       0.06817587       0.49957727       1.41842219
H        1.86520202      -0.92141593       0.01129170       0.31943230      -0.55277362      -1.53827424       0.31943230      -0.55277362      -1.53827424
H        1.85692117       0.91644402      -0.00201547       0.18306852       0.18357724       1.49815765       0.18306852       0.18357724       1.49815765
7
Properties=species:S:1:pos:R:3:orca_vtscf_forces:R:3:forces:R:3 nC=3 origin=geom-opt-rotated angle=72.71 phi=162.71 orca_vtscf_energy=-3172.488631785655 config_type=in-domain energy=-3172.488631785655 dataset=GNL-v0.2 pbc="F F F"
C       -1.29538074      -0.00770119      -0.00316380      -1.85037704       0.45921967      -0.14162970      -1.85037704       0.45921967      -0.14162970
C       -0.00990796      -0.01070902      -0.01438713       2.24706782       0.09276128       0.03050563       2.24706782       0.09276128       0.03050563
C        1.31431731       0.00295636      -0.01626504      -0.54050308       0.16619507       0.03782108      -0.54050308       0.16619507       0.03782108
H       -1.87310450       0.89078081      -0.25628607       0.18693885      -0.71246499      -1.41751870       0.18693885      -0.71246499      -1.41751870
H       -1.86568818      -0.88295084       0.27037019      -0.09138058       0.24263417       1.53925092      -0.09138058       0.24263417       1.53925092
H        1.88380372      -0.91129904       0.01058031       0.13302869      -0.30434842      -1.58021870       0.13302869      -0.30434842      -1.58021870
H        1.87695747       0.93098189      -0.01336642      -0.08377735       0.05694200       1.53146066      -0.08377735       0.05694200       1.53146066
7
Properties=species:S:1:pos:R:3:orca_vtscf_forces:R:3:forces:R:3 nC=3 origin=geom-opt-rotated angle=78.71 phi=168.71 orca_vtscf_energy=-3172.211540684916 config_type=in-domain energy=-3172.211540684916 dataset=GNL-v0.2 pbc="F F F"
C       -1.30671293      -0.01941322       0.00713685      -0.16464889       1.11747568      -0.30186380      -0.16464889       1.11747568      -0.30186380
C        0.00662162      -0.00228948       0.00271751      -0.63899314      -0.20044042       0.00460936      -0.63899314      -0.20044042       0.00460936
C        1.30838245      -0.01759668      -0.00794381       1.02127937       1.51288950       0.12730826       1.02127937       1.51288950       0.12730826
H       -1.86907392       0.90950747      -0.19441188       0.27213804      -0.82954219      -1.39421396       0.27213804      -0.82954219      -1.39421396
H       -1.86574100      -0.91587371       0.17202010      -0.29441748      -0.17853013       1.66649565      -0.29441748      -0.17853013       1.66649565
H        1.86498166      -0.93167663       0.02746219       0.31415440      -0.47188426      -1.59807032       0.31415440      -0.47188426      -1.59807032
H        1.88027804       0.94671282       0.00069118      -0.50745221      -0.94999854       1.49730389      -0.50745221      -0.94999854       1.49730389
7
Properties=species:S:1:pos:R:3:orca_vtscf_forces:R:3:forces:R:3 nC=3 origin=geom-opt-rotated angle=81.71 phi=171.71 orca_vtscf_energy=-3172.1263186434176 config_type=in-domain energy=-3172.1263186434176 dataset=GNL-v0.2 pbc="F F F"
C       -1.29581680      -0.00303639       0.00618976      -1.45127423      -0.15655384       0.00724647      -1.45127423      -0.15655384       0.00724647
C        0.00396013       0.00223320      -0.00054339       0.13609389      -0.06177909       0.10242718       0.13609389      -0.06177909       0.10242718
C        1.30688038       0.00242746       0.00820957       0.78485028      -0.28790651      -0.07763344       0.78485028      -0.28790651      -0.07763344
H       -1.86312961       0.92175112      -0.12973640       0.11968840      -0.43206614      -1.53831312       0.11968840      -0.43206614      -1.53831312
H       -1.88091496      -0.92623249       0.14576920       0.34573212       0.64799864       1.47808435       0.34573212       0.64799864       1.47808435
H        1.86999687      -0.92858812      -0.00290950      -0.05289092       0.05880112      -1.57335538      -0.05289092       0.05880112      -1.57335538
H        1.87292790       0.92072824      -0.00545560       0.11996241       0.23119539       1.60072035       0.11996241       0.23119539       1.60072035
7
Properties=species:S:1:pos:R:3:orca_vtscf_forces:R:3:forces:R:3 nC=3 origin=geom-opt-rotated angle=84.71 phi=174.71 orca_vtscf_energy=-3171.9928695159583 config_type=in-domain energy=-3171.9928695159583 dataset=GNL-v0.2 pbc="F F F"
C       -1.30420953       0.01669034      -0.00264380      -1.74871347      -1.12934450       0.20162097      -1.74871347      -1.12934450       0.20162097
C       -0.00967821       0.00059103       0.01514620       1.47581841       0.04569815      -0.23562403       1.47581841       0.04569815      -0.23562403
C        1.31204185      -0.00302454      -0.00838742       0.01261822      -0.11271521       0.11376696       0.01261822      -0.11271521       0.11376696
H       -1.88047746       0.92442314      -0.11021993      -0.01203210      -0.01001305      -1.54929531      -0.01203210      -0.01001305      -1.54929531
H       -1.88181776      -0.93964207       0.08771942       0.51759974       1.05389031       1.45231865       0.51759974       1.05389031       1.45231865
H        1.88769543      -0.93233663      -0.00265922      -0.21479446       0.20144070      -1.54563868      -0.21479446       0.20144070      -1.54563868
H        1.86991465       0.93003912      -0.00094993      -0.02922138      -0.04923272       1.56363831      -0.02922138      -0.04923272       1.56363831
7
Properties=species:S:1:pos:R:3:orca_vtscf_forces:R:3:forces:R:3 nC=3 origin=geom-opt-rotated angle=87.71 phi=177.71 orca_vtscf_energy=-3171.8263910043843 config_type=in-domain energy=-3171.8263910043843 dataset=GNL-v0.2 pbc="F F F"
C       -1.31284768       0.00705946       0.01915885      -1.53559761      -0.22909943      -0.04429903      -1.53559761      -0.22909943      -0.04429903
C       -0.02141741       0.00718971       0.00467073       2.44845162       0.08189249       0.09878068       2.44845162       0.08189249       0.09878068
C        1.31634037       0.00881924       0.00808651      -1.00671754       0.02520691      -0.04356782      -1.00671754       0.02520691      -0.04356782
H       -1.88477180       0.92380228      -0.04331656       0.00841145       0.06172813      -1.46474622       0.00841145       0.06172813      -1.46474622
H       -1.88968779      -0.91857023       0.04686120       0.15921634       0.15857250       1.47419689       0.15921634       0.15857250       1.47419689
H        1.86385737      -0.92196493       0.00426878       0.03013866      -0.19354702      -1.47976887       0.03013866      -0.19354702      -1.47976887
H        1.89636646       0.92385305      -0.00248107      -0.10379639       0.09369919       1.45838798      -0.10379639       0.09369919       1.45838798
8
Properties=species:S:1:pos:R:3:orca_vtscf_forces:R:3:forces:R:3 nC=4 origin=geom-opt-rotated angle=4.56 phi=184.56 orca_vtscf_energy=-4210.378850106694 config_type=in-domain energy=-4210.378850106694 dataset=GNL-v0.2 pbc="F F F"
C       -1.95794157      -0.00333381       0.00081504      -0.02423381      -0.40651219      -0.02294958      -0.02423381      -0.40651219      -0.02294958
C       -0.64627527      -0.00219282      -0.00770219       0.44828896       0.08657011       0.02399385       0.44828896       0.08657011       0.02399385
C        0.63059380       0.01850813      -0.00712253       0.23162818      -0.12365701       0.00970579       0.23162818      -0.12365701       0.00970579
C        1.95293358       0.00287921      -0.00130974      -0.33682495       0.52422821      -0.05973763      -0.33682495       0.52422821      -0.05973763
H       -2.53224855       0.91299081       0.08555991       0.08164638       0.02194651      -0.09672985       0.08164638       0.02194651      -0.09672985
H       -2.52584564      -0.93976213      -0.07299057       0.27613271       0.35436017       0.10842179       0.27613271       0.35436017       0.10842179
H        2.51669582      -0.93211795      -0.00931852      -0.20818879       0.21069814      -0.06645093      -0.20818879       0.21069814      -0.06645093
H        2.53778275       0.94487205      -0.00431872      -0.46781161      -0.66846276       0.10372272      -0.46781161      -0.66846276       0.10372272
8
Properties=species:S:1:pos:R:3:orca_vtscf_forces:R:3:forces:R:3 nC=4 origin=geom-opt-rotated angle=7.56 phi=187.56 orca_vtscf_energy=-4210.352659772065 config_type=in-domain energy=-4210.352659772065 dataset=GNL-v0.2 pbc="F F F"
C       -1.95728294       0.00983691       0.00581335       1.13503360      -0.26188238      -0.06816249       1.13503360      -0.26188238      -0.06816249
C       -0.63766216       0.00776851       0.00574937       0.86330376       0.00419203      -0.06421800       0.86330376       0.00419203      -0.06421800
C        0.65308291       0.01664638      -0.00267830      -2.49237603      -0.20543809       0.12966103      -2.49237603      -0.20543809       0.12966103
C        1.94690723      -0.00694936       0.01940836       0.90425576       0.75401489      -0.19628079       0.90425576       0.75401489      -0.19628079
H       -2.50436695       0.92162814       0.11597974      -0.27038717       0.49147796      -0.06511961      -0.27038717       0.49147796      -0.06511961
H       -2.52129009      -0.90192944      -0.11815264      -0.03972006      -0.18551221       0.13741142      -0.03972006      -0.18551221       0.13741142
H        2.52152577      -0.91594275       0.00508899       0.04607935      -0.33063585      -0.08306961       0.04607935      -0.33063585      -0.08306961
H        2.51428518       0.92898922      -0.00421708      -0.14495123      -0.26526854       0.20941792      -0.14495123      -0.26526854       0.20941792
8
Properties=species:S:1:pos:R:3:orca_vtscf_forces:R:3:forces:R:3 nC=4 origin=geom-opt-rotated angle=10.56 phi=190.56 orca_vtscf_energy=-4210.346539074842 config_type=in-domain energy=-4210.346539074842 dataset=GNL-v0.2 pbc="F F F"
C       -1.95698254      -0.01602993      -0.01534805      -0.13965111       0.72923104       0.25639085      -0.13965111       0.72923104       0.25639085