7
Properties=species:S:1:pos:R:3:orca_vtscf_forces:R:3:forces:R:3 nC=3 origin=geom-opt-rotated angle=36.71 phi=126.71 orca_vtscf_energy=-3173.9893120039255 config_type=in-domain energy=-3173.9893120039255 dataset=GNL-v0.2 pbc="F F F"
C       -1.30394300      -0.00681512       0.00242339      -0.83246175      -0.23070898       0.34857249      -0.83246175      -0.23070898       0.34857249
C       -0.01700721       0.00753057      -0.01534721       2.44541120      -0.19287121       0.18157920       2.44541120      -0.19287121       0.18157920
C        1.30872441      -0.00120313      -0.00807082      -1.30345535       0.60526781       0.00302947      -1.30345535       0.60526781       0.00302947
H       -1.84658196       0.54744133      -0.73749836      -0.38758942      -0.48175908      -0.77760231      -0.38758942      -0.48175908      -0.77760231
H       -1.86434400      -0.56556714       0.75564650       0.13795524       0.81126002       0.28699488       0.13795524       0.81126002       0.28699488
H        1.87407994      -0.91570814      -0.00913576       0.08725872      -0.28941568      -0.86023509       0.08725872      -0.28941568      -0.86023509
H        1.86500655       0.93792967       0.00502166      -0.14614184      -0.22058838       0.81759856      -0.14614184      -0.22058838       0.81759856
7
Properties=species:S:1:pos:R:3:orca_vtscf_forces:R:3:forces:R:3 nC=3 origin=geom-opt-rotated angle=45.71 phi=135.71 orca_vtscf_energy=-3173.7038661347083 config_type=in-domain energy=-3173.7038661347083 dataset=GNL-v0.2 pbc="F F F"
C       -1.31179614       0.00339199      -0.00156009       0.26007364       0.09444540      -0.15742789       0.26007364       0.09444540      -0.15742789
C       -0.00501775       0.00235483      -0.01763605      -0.15645310      -0.09222516       0.10011435      -0.15645310      -0.09222516       0.10011435
C        1.29771452      -0.01087851      -0.00305270       0.63880615       0.54008306       0.01705608       0.63880615       0.54008306       0.01705608
H       -1.88003763       0.66070918      -0.64295895      -0.08235835      -0.62035665      -0.86394659      -0.08235835      -0.62035665      -0.86394659
H       -1.86840839      -0.65860551       0.64086203      -0.08984719       0.57074159       0.94992482      -0.08984719       0.57074159       0.94992482
H        1.88129534      -0.92746265       0.01600508      -0.14931121      -0.03538240      -1.08099145      -0.14931121      -0.03538240      -1.08099145
H        1.88211812       0.92598051      -0.00087486      -0.41763307      -0.45706928       1.03568454      -0.41763307      -0.45706928       1.03568454
7
Properties=species:S:1:pos:R:3:orca_vtscf_forces:R:3:forces:R:3 nC=3 origin=geom-opt-rotated angle=54.71 phi=144.71 orca_vtscf_energy=-3173.363773146885 config_type=in-domain energy=-3173.363773146885 dataset=GNL-v0.2 pbc="F F F"
C       -1.30787857       0.02190117      -0.00134992      -0.02567504      -0.72303216       0.45972318      -0.02567504      -0.72303216       0.45972318
C        0.00160532       0.00442612       0.00623391       0.45981105       0.14103119      -0.16078082       0.45981105       0.14103119      -0.16078082
C        1.31876218       0.00394163      -0.00336487      -0.42590741      -0.03370103       0.09176083      -0.42590741      -0.03370103       0.09176083
H       -1.88175921       0.76374700      -0.53071526      -0.05377120      -0.47148407      -1.14156191      -0.05377120      -0.47148407      -1.14156191
H       -1.86955737      -0.76670594       0.52493383       0.23080891       1.08437697       0.78290197       0.23080891       1.08437697       0.78290197
H        1.88875663      -0.92001461       0.00537532      -0.08374767      -0.04869691      -1.25741140      -0.08374767      -0.04869691      -1.25741140
H        1.89597232       0.92292847       0.00601658      -0.10053220       0.05225120       1.22550597      -0.10053220       0.05225120       1.22550597
7
Properties=species:S:1:pos:R:3:orca_vtscf_forces:R:3:forces:R:3 nC=3 origin=geom-opt-rotated angle=57.71 phi=147.71 orca_vtscf_energy=-3173.2828690670062 config_type=in-domain energy=-3173.2828690670062 dataset=GNL-v0.2 pbc="F F F"
C       -1.30646282      -0.00340551      -0.00577849      -0.51823457      -0.36627423       0.25389669      -0.51823457      -0.36627423       0.25389669
C       -0.00404017      -0.00603375      -0.00243852       1.10683151       0.17215055      -0.00641892       1.10683151       0.17215055      -0.00641892
C        1.31902658       0.00580668       0.00252314      -1.30944143       0.20868814      -0.02653254      -1.30944143       0.20868814      -0.02653254
H       -1.88992561       0.76716675      -0.49194400       0.03584024      -0.54524587      -1.17571688       0.03584024      -0.54524587      -1.17571688
H       -1.87531253      -0.79280709       0.49571858       0.19634474       0.85300544       0.95841405       0.19634474       0.85300544       0.95841405
H        1.86338191      -0.91027785      -0.00933007       0.39465159      -0.59322612      -1.29219217       0.39465159      -0.59322612      -1.29219217
H        1.88056719       0.92433206       0.00523079       0.09354231       0.27053949       1.28846611       0.09354231       0.27053949       1.28846611
7
Properties=species:S:1:pos:R:3:orca_vtscf_forces:R:3:forces:R:3 nC=3 origin=geom-opt-rotated angle=63.71 phi=153.71 orca_vtscf_energy=-3172.979868028971 config_type=in-domain energy=-3172.979868028971 dataset=GNL-v0.2 pbc="F F F"
C       -1.30919250      -0.00111282       0.01041697      -0.61785134       0.10402914      -0.13890014      -0.61785134       0.10402914      -0.13890014
C       -0.01256725       0.00745302      -0.01711054       1.33334397      -0.12603531       0.21489984       1.33334397      -0.12603531       0.21489984
C        1.30661450      -0.00234657       0.01128044      -0.56526057       0.07126862      -0.17644123      -0.56526057       0.07126862      -0.17644123
H       -1.87542641       0.82393004      -0.39634108      -0.17504863      -0.48592128      -1.32059870      -0.17504863      -0.48592128      -1.32059870
H       -1.85919364      -0.83695177       0.41699964      -0.09253852       0.46395652       1.36103822      -0.09253852       0.46395652       1.36103822
H        1.87082028      -0.92420987       0.00257522       0.05149937      -0.13580158      -1.38101027       0.05149937      -0.13580158      -1.38101027
H        1.86254729       0.92647175      -0.01061563       0.06328960       0.10893890       1.44035363       0.06328960       0.10893890       1.44035363
8
Properties=species:S:1:pos:R:3:orca_vtscf_forces:R:3:forces:R:3 nC=4 origin=geom-opt-rotated angle=1.56 phi=181.56 orca_vtscf_energy=-4210.367790964983 config_type=in-domain energy=-4210.367790964983 dataset=GNL-v0.2 pbc="F F F"
C       -1.96643453       0.01527893      -0.00970298       1.64997869      -1.04208375       0.14245316       1.64997869      -1.04208375       0.14245316
C       -0.63365940      -0.00101379       0.00296771      -2.32801924       0.22192100      -0.07551110      -2.32801924       0.22192100      -0.07551110
C        0.62110538       0.01586552       0.00127644       1.70121773       0.01854776       0.00684777       1.70121773       0.01854776       0.00684777
C        1.94272545       0.01578213       0.00107910      -0.85088960      -0.49394406       0.02394026      -0.85088960      -0.49394406       0.02394026
H       -2.53006158       0.91701293       0.03904011      -0.25702380       0.63752465      -0.05245853      -0.25702380       0.63752465      -0.05245853
H       -2.51482804      -0.92761570      -0.01975437       0.08670217       0.21649377      -0.02531165       0.08670217       0.21649377      -0.02531165
H        2.50157614      -0.91573447      -0.00002524      -0.10052252       0.02431294      -0.03878380      -0.10052252       0.02431294      -0.03878380
H        2.51776310       0.92086756       0.01067736       0.09905424       0.41473361       0.01961058       0.09905424       0.41473361       0.01961058
8
Properties=species:S:1:pos:R:3:orca_vtscf_forces:R:3:forces:R:3 nC=4 origin=geom-opt-rotated angle=25.56 phi=205.56 orca_vtscf_energy=-4210.184746436269 config_type=in-domain energy=-4210.184746436269 dataset=GNL-v0.2 pbc="F F F"
C       -1.94370694      -0.00323136       0.00128159      -0.05587551       0.87927534       0.47879177      -0.05587551       0.87927534       0.47879177
C       -0.63556727       0.01288050       0.01618274       0.20025062      -0.19339099      -0.14971981       0.20025062      -0.19339099      -0.14971981
C        0.63367310      -0.01247944      -0.00267078       0.46414012       0.03196495       0.00326636       0.46414012       0.03196495       0.00326636
C        1.95231850      -0.00480195      -0.01708013      -0.42614292      -0.07666921       0.17808547      -0.42614292      -0.07666921       0.17808547
H       -2.51140228       0.83406504       0.42457839       0.19777021      -0.06881961      -0.58931654       0.19777021      -0.06881961      -0.58931654
H       -2.51033547      -0.81519262      -0.40206992      -0.18082951      -0.68059796       0.20152859      -0.18082951      -0.68059796       0.20152859
H        2.53562424      -0.92491493       0.00489676      -0.17217353       0.11359912      -0.55079940      -0.17217353       0.11359912      -0.55079940
H        2.50376959       0.92923447       0.00145176      -0.03089601      -0.00447744       0.42880399      -0.03089601      -0.00447744       0.42880399
8
Properties=species:S:1:pos:R:3:orca_vtscf_forces:R:3:forces:R:3 nC=4 origin=geom-opt-rotated angle=28.56 phi=208.56 orca_vtscf_energy=-4210.128335006224 config_type=in-domain energy=-4210.128335006224 dataset=GNL-v0.2 pbc="F F F"
C       -1.93974560       0.00221109      -0.00144915      -1.22242532       0.27386742       0.32168560      -1.22242532       0.27386742       0.32168560
C       -0.63713301       0.00605345       0.02415748      -0.42220468      -0.08099137      -0.14382136      -0.42220468      -0.08099137      -0.14382136
C        0.61919891      -0.02421070       0.00639641       2.47265795       0.21547631       0.09926238       2.47265795       0.21547631       0.09926238
C        1.95580901      -0.00156726       0.00772458      -1.41503427      -0.60712541      -0.09973229      -1.41503427      -0.60712541      -0.09973229
H       -2.53599721       0.81954922       0.45282302       0.51065808      -0.26890469      -0.76641220       0.51065808      -0.26890469      -0.76641220
H       -2.51973282      -0.82226077      -0.43175075       0.32409982       0.01575206       0.52923954       0.32409982       0.01575206       0.52923954
H        2.53460692      -0.92562909      -0.01105017      -0.21319220       0.12197405      -0.47850186      -0.21319220       0.12197405      -0.47850186
H        2.52575091       0.91148008       0.00117034      -0.03730688       0.33002897       0.53825575      -0.03730688       0.33002897       0.53825575
8
Properties=species:S:1:pos:R:3:orca_vtscf_forces:R:3:forces:R:3 nC=4 origin=geom-opt-rotated angle=37.56 phi=217.56 orca_vtscf_energy=-4209.955144348619 config_type=in-domain energy=-4209.955144348619 dataset=GNL-v0.2 pbc="F F F"
C       -1.94882686      -0.00138277       0.00648101       0.90284229      -0.87763796      -0.68924221       0.90284229      -0.87763796      -0.68924221
C       -0.62313470      -0.00234835      -0.00241159      -0.28543079       0.06131125       0.02613563      -0.28543079       0.06131125       0.02613563
C        0.65415713       0.00768891      -0.00476127      -1.08127117      -0.08450672       0.00146723      -1.08127117      -0.08450672       0.00146723
C        1.95921960      -0.00463430      -0.00465317       0.35185090       0.05462867       0.02571426       0.35185090       0.05462867       0.02571426
H       -2.52000148       0.71420690       0.54670336      -0.27838283       1.02464936      -0.09552720      -0.27838283       1.02464936      -0.09552720
H       -2.52805477      -0.74349608      -0.56075362       0.36446002      -0.17067819       0.75583291       0.36446002      -0.17067819       0.75583291
H        2.51333487      -0.93923533       0.01468903      -0.00481957       0.07383928      -0.70205135      -0.00481957       0.07383928      -0.70205135
H        2.52018013       0.92577299      -0.01421494       0.03158652      -0.08168986       0.67783871       0.03158652      -0.08168986       0.67783871
8
Properties=species:S:1:pos:R:3:orca_vtscf_forces:R:3:forces:R:3 nC=4 origin=geom-opt-rotated angle=88.56 phi=268.56 orca_vtscf_energy=-4208.101747492488 config_type=in-domain energy=-4208.101747492488 dataset=GNL-v0.2 pbc="F F F"
C       -1.97048684       0.00563205       0.00420796      -0.12432630      -0.07083223      -0.25745799      -0.12432630      -0.07083223      -0.25745799
C       -0.65437859       0.00631655      -0.01199089       1.21403366       0.08436558       0.05659467       1.21403366       0.08436558       0.05659467
C        0.62601451       0.01773759      -0.01128975      -1.68728764      -0.09959879      -0.00062742      -1.68728764      -0.09959879      -0.00062742
C        1.93184732      -0.00512485      -0.00372487       1.67202949       0.06789093      -0.02237234       1.67202949       0.06789093      -0.02237234
H       -2.52307875       0.01361069       0.92140016      -0.33426847       1.61058565       0.44846054      -0.33426847       1.61058565       0.44846054
H       -2.52860499      -0.02819302      -0.91588563      -0.25145512      -1.57383215      -0.23337596      -0.25145512      -1.57383215      -0.23337596
H        2.52370317      -0.92582992      -0.00561452      -0.26810496       0.08991110      -1.58132914      -0.26810496       0.08991110      -1.58132914
H        2.53300155       0.90975403      -0.00044628      -0.21936929      -0.10856340       1.59044340      -0.21936929      -0.10856340       1.59044340
9
Properties=species:S:1:pos:R:3:orca_vtscf_forces:R:3:forces:R:3 nC=5 origin=geom-opt-rotated angle=35.88 phi=125.88 orca_vtscf_energy=-5246.063215285998 config_type=in-domain energy=-5246.063215285998 dataset=GNL-v0.2 pbc="F F F"
C       -2.59876792      -0.01193417      -0.00444260       1.09845329       0.09659035      -0.00608103       1.09845329       0.09659035      -0.00608103
C       -1.27677577      -0.00453397       0.00584310      -0.06057616      -0.03712018      -0.07791824      -0.06057616      -0.03712018      -0.07791824
C        0.01177331      -0.00968098       0.00216967      -1.89537450       0.03914958       0.07816093      -1.89537450       0.03914958       0.07816093
C        1.27300867      -0.00324644       0.01412183       1.44800274      -0.12448318      -0.17574581       1.44800274      -0.12448318      -0.17574581
C        2.58733460      -0.01361680      -0.01705927      -0.24139299       0.43311259       0.24286639      -0.24139299       0.43311259       0.24286639
H       -3.15600541       0.54183566      -0.75198406       0.02982334      -0.44523481      -0.31073625       0.02982334      -0.44523481      -0.31073625
H       -3.14993137      -0.55737248       0.74849500      -0.06985462       0.36567553       0.37200109      -0.06985462       0.36567553       0.37200109
H        3.16432580      -0.92946648       0.00674115      -0.10945349      -0.11914203      -0.58794604      -0.10945349      -0.11914203      -0.58794604
H        3.15475450       0.92007412      -0.00052013      -0.19890082      -0.20793929       0.46578275      -0.19890082      -0.20793929       0.46578275
9
Properties=species:S:1:pos:R:3:orca_vtscf_forces:R:3:forces:R:3 nC=5 origin=geom-opt-rotated angle=68.88 phi=158.88 orca_vtscf_energy=-5245.262429429332 config_type=in-domain energy=-5245.262429429332 dataset=GNL-v0.2 pbc="F F F"
C       -2.58605538      -0.01356636       0.01286975      -0.31575974       0.71412680      -0.38162258      -0.31575974       0.71412680      -0.38162258
C       -1.27593514       0.00577611      -0.00029008      -0.17431376      -0.21480422       0.15501175      -0.17431376      -0.21480422       0.15501175
C       -0.00381542      -0.00311871       0.01386445       1.84351718       0.10087483      -0.11676274       1.84351718       0.10087483      -0.11676274
C        1.29883511       0.01052740      -0.00564076      -2.17331137       0.00774377       0.13835933      -2.17331137       0.00774377       0.13835933
C        2.59892277       0.01999889       0.00239045       0.36379979      -0.65728173      -0.09538565       0.36379979      -0.65728173      -0.09538565
H       -3.15148518       0.86133839      -0.33958385       0.25972657      -0.71008311      -0.72861592       0.25972657      -0.71008311      -0.72861592
H       -3.16797049      -0.86439274       0.33258237       0.05196222       0.14215132       0.99637048       0.05196222       0.14215132       0.99637048
H        3.16195297      -0.91421268      -0.00409777      -0.09263492       0.15407674      -0.94790484      -0.09263492       0.15407674      -0.94790484
H        3.15856401       0.93273865      -0.00612410       0.23457495       0.46251804       0.98090414       0.23457495       0.46251804       0.98090414
9
Properties=species:S:1:pos:R:3:orca_vtscf_forces:R:3:forces:R:3 nC=5 origin=geom-opt-rotated angle=74.88 phi=164.88 orca_vtscf_energy=-5245.069997706249 config_type=in-domain energy=-5245.069997706249 dataset=GNL-v0.2 pbc="F F F"
C       -2.59577801      -0.00459936       0.00663001      -0.62952053       0.00689068      -0.10031597      -0.62952053       0.00689068      -0.10031597
C       -1.29496637      -0.00544483      -0.00734258       0.95506602      -0.01937409       0.10622934       0.95506602      -0.01937409       0.10622934
C       -0.01033299      -0.00231608      -0.00043073      -0.59996982      -0.04141609       0.04177531      -0.59996982      -0.04141609       0.04177531
C        1.26302651       0.00491461       0.02101127       0.70668522       0.00811172      -0.10360976       0.70668522       0.00811172      -0.10360976
C        2.58278071       0.00411975       0.01016788      -0.39504551      -0.26175006      -0.03230609      -0.39504551      -0.26175006      -0.03230609
H       -3.16588376       0.88168767      -0.23577122       0.00849854      -0.08879628      -1.04437265       0.00849854      -0.08879628      -1.04437265
H       -3.17828888      -0.88987559       0.23047215       0.09441699       0.12474260       1.07083019       0.09441699       0.12474260       1.07083019
H        3.14929652      -0.92286999      -0.00315064      -0.15386630      -0.01794837      -1.01469891      -0.15386630      -0.01794837      -1.01469891
H        3.16148649       0.91328799      -0.01049281       0.01518430       0.28837598       1.07584929       0.01518430       0.28837598       1.07584929
9
Properties=species:S:1:pos:R:3:orca_vtscf_forces:R:3:forces:R:3 nC=5 origin=geom-opt-rotated angle=80.88 phi=170.88 orca_vtscf_energy=-5244.834902700949 config_type=in-domain energy=-5244.834902700949 dataset=GNL-v0.2 pbc="F F F"
C       -2.60042475      -0.00604907       0.00456817      -0.21874371       0.55853501      -0.19190320      -0.21874371       0.55853501      -0.19190320
C       -1.28790209       0.00691699      -0.01153494      -0.18824540      -0.02167634       0.12542915      -0.18824540      -0.02167634       0.12542915
C       -0.01582408       0.01798762      -0.00044605       2.20612496      -0.06966158      -0.04531297       2.20612496      -0.06966158      -0.04531297
C        1.29330540       0.00655682      -0.00479970      -2.06252497       0.05401497      -0.03748252      -2.06252497       0.05401497      -0.03748252
C        2.60063088       0.00679512      -0.00919223      -0.22075219       0.12071757       0.05715349      -0.22075219       0.12071757       0.05715349
H       -3.16710234       0.92304526      -0.14910187       0.22127006      -0.59880362      -0.96663919       0.22127006      -0.59880362      -0.96663919
H       -3.15166291      -0.92573657       0.14235736      -0.04978431       0.08074925       1.08858257      -0.04978431       0.08074925       1.08858257
H        3.16859956      -0.89941266       0.00614382       0.19578652      -0.56854248      -1.11405296       0.19578652      -0.56854248      -1.11405296
H        3.16654222       0.91865960      -0.00549116       0.11905558       0.44455407       1.08439455       0.11905558       0.44455407       1.08439455
9
Properties=species:S:1:pos:R:3:orca_vtscf_forces:R:3:forces:R:3 nC=5 origin=geom-opt-rotated angle=89.88 phi=179.88 orca_vtscf_energy=-5244.44453801807 config_type=in-domain energy=-5244.44453801807 dataset=GNL-v0.2 pbc="F F F"
C       -2.61139919      -0.00001610      -0.00425853       1.15821295      -0.16131465       0.03373888       1.15821295      -0.16131465       0.03373888
C       -1.28422579      -0.00307618       0.00039163      -0.70752621      -0.01726460      -0.00827503      -0.70752621      -0.01726460      -0.00827503
C       -0.00068343      -0.01205313      -0.00183844      -0.69564925       0.05529112       0.01566083      -0.69564925       0.05529112       0.01566083
C        1.27287435      -0.00244886       0.00673295       1.25722979      -0.07609966      -0.05971047       1.25722979      -0.07609966      -0.05971047
C        2.59791057      -0.00624774      -0.00206413      -0.87033863      -0.23958682       0.04502663      -0.87033863      -0.23958682       0.04502663
H       -3.17029504       0.91703589       0.00203423      -0.01888277       0.32691661      -0.00070853      -0.01888277       0.32691661      -0.00070853
H       -3.16820126      -0.92441015       0.00982365       0.06865956      -0.16786022      -0.01886041       0.06865956      -0.16786022      -0.01886041
H        3.16152758      -0.93119477       0.00555208      -0.18864914      -0.07532714       0.00598562      -0.18864914      -0.07532714       0.00598562
H        3.16624264       0.90484857       0.00003289      -0.00276074       0.35494683      -0.01233581      -0.00276074       0.35494683      -0.01233581
10
Properties=species:S:1:pos:R:3:orca_vtscf_forces:R:3:forces:R:3 nC=6 origin=geom-opt-rotated angle=32.88 phi=212.88 orca_vtscf_energy=-6282.1034323895365 config_type=in-domain energy=-6282.1034323895365 dataset=GNL-v0.2 pbc="F F F"
C       -3.25498175       0.00342820       0.01152336       1.63200154      -0.32578184      -0.26053089       1.63200154      -0.32578184      -0.26053089
C       -1.92469046       0.00980840       0.00513856      -0.18897174      -0.03833521       0.02464374      -0.18897174      -0.03833521       0.02464374
C       -0.64210630      -0.01070643      -0.00189316      -0.63834871       0.08889687       0.02701368      -0.63834871       0.08889687       0.02701368
C        0.64686891      -0.00458447       0.00435784      -0.36147491      -0.00108416      -0.01402077      -0.36147491      -0.00108416      -0.01402077
C        1.91632995       0.00816707       0.00672783       0.68637596      -0.11122827       0.01150241       0.68637596      -0.11122827       0.01150241
C        3.23643979      -0.00531140       0.01029033      -0.52436222       0.68602725      -0.04493825      -0.52436222       0.68602725      -0.04493825
H       -3.80976631       0.76605610       0.51868747      -0.24640359       0.54758244      -0.13304933      -0.24640359       0.54758244      -0.13304933
H       -3.78997719      -0.77976689      -0.51090851      -0.07777161      -0.23908950       0.35744532      -0.07777161      -0.23908950       0.35744532
H        3.80723594      -0.91615587       0.00730680       0.02143476      -0.37768688      -0.41096290       0.02143476      -0.37768688      -0.41096290
H        3.81900260       0.92226993       0.00055356      -0.30219219      -0.22843925       0.44240076      -0.30219219      -0.22843925       0.44240076
10
Properties=species:S:1:pos:R:3:orca_vtscf_forces:R:3:forces:R:3 nC=6 origin=geom-opt-rotated angle=59.88 phi=239.88 orca_vtscf_energy=-6281.573163379046 config_type=in-domain energy=-6281.573163379046 dataset=GNL-v0.2 pbc="F F F"
C       -3.23936145       0.02440777      -0.00941608       0.68252110       0.05245620       0.63656527       0.68252110       0.05245620       0.63656527
C       -1.91602698       0.00735146       0.00972555      -0.51027325       0.07436034      -0.11889508      -0.51027325       0.07436034      -0.11889508
C       -0.64172615      -0.00074675      -0.00177508      -0.60453238       0.02066982       0.03936224      -0.60453238       0.02066982       0.03936224
C        0.63593146      -0.00156707      -0.00341141       1.91238333      -0.01395696       0.04285486       1.91238333      -0.01395696       0.04285486
C        1.93035320      -0.00092754       0.00508143      -2.78925509      -0.02989079      -0.06937014      -2.78925509      -0.02989079      -0.06937014
C        3.21994168      -0.00364678      -0.00031619       1.80417751       0.46626107       0.05405599       1.80417751       0.46626107       0.05405599
H       -3.80664640       0.46738489       0.81880728       0.21370990       0.56032809      -0.72309596       0.21370990       0.56032809      -0.72309596
H       -3.79122147      -0.46898628      -0.79197931      -0.11780155      -0.69321227       0.16220992      -0.11780155      -0.69321227       0.16220992
H        3.80823758      -0.92042041       0.01577974      -0.17712183       0.02294484      -0.77511290      -0.17712183       0.02294484      -0.77511290
H        3.80700013       0.93271428      -0.00806316      -0.41424346      -0.46026297       0.74924000      -0.41424346      -0.46026297       0.74924000
10
Properties=species:S:1:pos:R:3:orca_vtscf_forces:R:3:forces:R:3 nC=6 origin=geom-opt-rotated angle=74.88 phi=254.88 orca_vtscf_energy=-6281.212901567743 config_type=in-domain energy=-6281.212901567743 dataset=GNL-v0.2 pbc="F F F"
C       -3.23770172       0.00800023      -0.00662143       0.86555678      -0.02066407       0.24263099       0.86555678      -0.02066407       0.24263099
C       -1.90945720       0.00065060      -0.01108486      -1.87853718       0.08745149       0.04409418      -1.87853718       0.08745149       0.04409418
C       -0.65325063       0.00679816      -0.01304494       0.94082014      -0.06306819       0.03975494       0.94082014      -0.06306819       0.03975494
C        0.63180528      -0.00692290       0.00186520       1.70282695       0.05543919      -0.12184785       1.70282695       0.05543919      -0.12184785
C        1.92461978      -0.00601963      -0.01384786      -1.72402160      -0.01654525       0.14627205      -1.72402160      -0.01654525       0.14627205
C        3.23438010      -0.00181212       0.00284239       0.20702723       0.70770182      -0.11433890       0.20702723       0.70770182      -0.11433890
H       -3.80503534       0.24011391       0.89133472       0.09840101       0.89985512      -0.28968086       0.09840101       0.89985512      -0.28968086
H       -3.79317391      -0.24544325      -0.89339708      -0.14272035      -0.93790888      -0.00031919      -0.14272035      -0.93790888      -0.00031919
H        3.80217446      -0.91408054      -0.01748511       0.18071366      -0.30671932      -0.89642256       0.18071366      -0.30671932      -0.89642256
H        3.79671178       0.94346163      -0.00331335      -0.24924191      -0.40423068       0.95022766      -0.24924191      -0.40423068       0.95022766
10
Properties=species:S:1:pos:R:3:orca_vtscf_forces:R:3:forces:R:3 nC=6 origin=geom-opt-rotated angle=77.88 phi=257.88 orca_vtscf_energy=-6281.03317390015 config_type=in-domain energy=-6281.03317390015 dataset=GNL-v0.2 pbc="F F F"
C       -3.23126623      -0.00931761       0.01608554      -1.31462535      -0.11523029      -0.44748803      -1.31462535      -0.11523029      -0.44748803
C       -1.94025081      -0.00826662       0.00607999       3.91443016       0.10849883       0.09065003       3.91443016       0.10849883       0.09065003
C       -0.62507765       0.01231378       0.01432549      -3.43149710      -0.16677769      -0.05289163      -3.43149710      -0.16677769      -0.05289163
C        0.64647199      -0.02268345       0.01010568       1.06376514       0.15411229      -0.06606088       1.06376514       0.15411229      -0.06606088
C        1.92441577      -0.00436453      -0.00398438      -0.56386921      -0.04196463       0.12629145      -0.56386921      -0.04196463       0.12629145
C        3.23277733       0.00318189       0.00224370       0.18605700      -0.49143698      -0.09174135       0.18605700      -0.49143698      -0.09174135
H       -3.80688554       0.17457440       0.91080335      -0.06159334       1.01392103       0.02442569      -0.06159334       1.01392103       0.02442569
H       -3.80229659      -0.20161651      -0.89654378       0.13044091      -0.92657894       0.38056621       0.13044091      -0.92657894       0.38056621
H        3.80290481      -0.92686981      -0.00129368      -0.09506671       0.14441729      -0.96395373      -0.09506671       0.14441729      -0.96395373
H        3.79032272       0.92277175      -0.00891929       0.17391114       0.32177782       1.00006444       0.17391114       0.32177782       1.00006444
10
Properties=species:S:1:pos:R:3:orca_vtscf_forces:R:3:forces:R:3 nC=6 origin=geom-opt-rotated angle=89.88 phi=269.88 orca_vtscf_energy=-6280.740311067554 config_type=in-domain energy=-6280.740311067554 dataset=GNL-v0.2 pbc="F F F"
C       -3.23755921       0.01204833       0.00649739      -0.13887693      -0.10556611      -0.30021453      -0.13887693      -0.10556611      -0.30021453
C       -1.92979672      -0.00539849       0.00158903       1.28417969       0.05843763      -0.01656512       1.28417969       0.05843763      -0.01656512